Hw42c                                                                   
POpt      RHF                                                         6-31G(d,p)          
Number of atoms                            I               13
Info1-9                                    I   N=           9
          59          59           0           0           2         110
           2           1           2
Full Title                                 C   N=           1
Hw42c       
Route                                      C   N=           4
#n RHF/6-31G(d,p) pop=Reg Opt=z-matrix formcheck
Charge                                     I                1
Multiplicity                               I                1
Number of electrons                        I               32
Number of alpha electrons                  I               16
Number of beta electrons                   I               16
Number of basis functions                  I              105
Number of independent functions            I              105
Number of point charges in /Mol/           I                0
Number of translation vectors              I                0
Atomic numbers                             I   N=          13
           6           6           1           1           1           6
           1           1           1           6           1           1
           1
Nuclear charges                            R   N=          13
  6.00000000E+00  6.00000000E+00  1.00000000E+00  1.00000000E+00  1.00000000E+00
  6.00000000E+00  1.00000000E+00  1.00000000E+00  1.00000000E+00  6.00000000E+00
  1.00000000E+00  1.00000000E+00  1.00000000E+00
Current cartesian coordinates              R   N=          39
  1.37756399E-05  1.57593262E-01  1.23806869E-01 -2.44868355E+00 -1.32872677E+00
 -5.10061058E-02 -2.55981416E+00 -2.15000762E+00 -1.92439029E+00 -4.09690775E+00
 -1.55663047E-01  2.50250122E-01 -2.45116259E+00 -2.85385771E+00  1.31021731E+00
  2.44894572E+00 -1.32829047E+00 -5.10039042E-02  2.45098477E+00 -2.85429404E+00
  1.30924155E+00  4.09689976E+00 -1.55238260E-01  2.51781755E-01  2.56099940E+00
 -2.14833699E+00 -1.92487342E+00 -2.86449945E-04  2.75303362E+00 -1.69078526E-01
 -1.26352546E-04  1.19945141E+00  1.91498010E+00  1.74745800E+00  3.79834915E+00
 -1.51834117E-01 -1.74826807E+00  3.79793927E+00 -1.51683000E-01
Number of symbols in /Mol/                 I                0
Force Field                                I                0
Atom Types                                 C   N=          13
                                                            
                                                            
                                    
Int Atom Types                             I   N=          13
           0           0           0           0           0           0
           0           0           0           0           0           0
           0
MM charges                                 R   N=          13
  0.00000000E+00  0.00000000E+00  0.00000000E+00  0.00000000E+00  0.00000000E+00
  0.00000000E+00  0.00000000E+00  0.00000000E+00  0.00000000E+00  0.00000000E+00
  0.00000000E+00  0.00000000E+00  0.00000000E+00
Integer atomic weights                     I   N=          13
          12          12           1           1           1          12
           1           1           1          12           1           1
           1
Real atomic weights                        R   N=          13
  1.20000000E+01  1.20000000E+01  1.00782504E+00  1.00782504E+00  1.00782504E+00
  1.20000000E+01  1.00782504E+00  1.00782504E+00  1.00782504E+00  1.20000000E+01
  1.00782504E+00  1.00782504E+00  1.00782504E+00
Atom fragment info                         I   N=          13
           0           0           0           0           0           0
           0           0           0           0           0           0
           0
Atom residue num                           I   N=          13
           0           0           0           0           0           0
           0           0           0           0           0           0
           0
Nuclear spins                              I   N=          13
           0           0           1           1           1           0
           1           1           1           0           1           1
           1
Nuclear ZEff                               R   N=          13
 -3.60000000E+00 -3.60000000E+00 -1.00000000E+00 -1.00000000E+00 -1.00000000E+00
 -3.60000000E+00 -1.00000000E+00 -1.00000000E+00 -1.00000000E+00 -3.60000000E+00
 -1.00000000E+00 -1.00000000E+00 -1.00000000E+00
Nuclear ZNuc                               R   N=          13
  6.00000000E+00  6.00000000E+00  1.00000000E+00  1.00000000E+00  1.00000000E+00
  6.00000000E+00  1.00000000E+00  1.00000000E+00  1.00000000E+00  6.00000000E+00
  1.00000000E+00  1.00000000E+00  1.00000000E+00
Nuclear QMom                               R   N=          13
  0.00000000E+00  0.00000000E+00  0.00000000E+00  0.00000000E+00  0.00000000E+00
  0.00000000E+00  0.00000000E+00  0.00000000E+00  0.00000000E+00  0.00000000E+00
  0.00000000E+00  0.00000000E+00  0.00000000E+00
Nuclear GFac                               R   N=          13
  0.00000000E+00  0.00000000E+00  2.79284600E+00  2.79284600E+00  2.79284600E+00
  0.00000000E+00  2.79284600E+00  2.79284600E+00  2.79284600E+00  0.00000000E+00
  2.79284600E+00  2.79284600E+00  2.79284600E+00
MicOpt                                     I   N=          13
          -1          -1          -1          -1          -1          -1
          -1          -1          -1          -1          -1          -1
          -1
Number of residues                         I                0
Number of secondary structures             I                0
Number of contracted shells                I               43
Number of primitive shells                 I               89
Pure/Cartesian d shells                    I                1
Pure/Cartesian f shells                    I                0
Highest angular momentum                   I                2
Largest degree of contraction              I                6
Shell types                                I   N=          43
           0          -1          -1           2           0          -1
          -1           2           0           0           1           0
           0           1           0           0           1           0
          -1          -1           2           0           0           1
           0           0           1           0           0           1
           0          -1          -1           2           0           0
           1           0           0           1           0           0
           1
Number of primitives per shell             I   N=          43
           6           3           1           1           6           3
           1           1           3           1           1           3
           1           1           3           1           1           6
           3           1           1           3           1           1
           3           1           1           3           1           1
           6           3           1           1           3           1
           1           3           1           1           3           1
           1
Shell to atom map                          I   N=          43
           1           1           1           1           2           2
           2           2           3           3           3           4
           4           4           5           5           5           6
           6           6           6           7           7           7
           8           8           8           9           9           9
          10          10          10          10          11          11
          11          12          12          12          13          13
          13
Primitive exponents                        R   N=          89
  3.04752488E+03  4.57369518E+02  1.03948685E+02  2.92101553E+01  9.28666296E+00
  3.16392696E+00  7.86827235E+00  1.88128854E+00  5.44249258E-01  1.68714478E-01
  8.00000000E-01  3.04752488E+03  4.57369518E+02  1.03948685E+02  2.92101553E+01
  9.28666296E+00  3.16392696E+00  7.86827235E+00  1.88128854E+00  5.44249258E-01
  1.68714478E-01  8.00000000E-01  1.87311370E+01  2.82539436E+00  6.40121692E-01
  1.61277759E-01  1.10000000E+00  1.87311370E+01  2.82539436E+00  6.40121692E-01
  1.61277759E-01  1.10000000E+00  1.87311370E+01  2.82539436E+00  6.40121692E-01
  1.61277759E-01  1.10000000E+00  3.04752488E+03  4.57369518E+02  1.03948685E+02
  2.92101553E+01  9.28666296E+00  3.16392696E+00  7.86827235E+00  1.88128854E+00
  5.44249258E-01  1.68714478E-01  8.00000000E-01  1.87311370E+01  2.82539436E+00
  6.40121692E-01  1.61277759E-01  1.10000000E+00  1.87311370E+01  2.82539436E+00
  6.40121692E-01  1.61277759E-01  1.10000000E+00  1.87311370E+01  2.82539436E+00
  6.40121692E-01  1.61277759E-01  1.10000000E+00  3.04752488E+03  4.57369518E+02
  1.03948685E+02  2.92101553E+01  9.28666296E+00  3.16392696E+00  7.86827235E+00
  1.88128854E+00  5.44249258E-01  1.68714478E-01  8.00000000E-01  1.87311370E+01
  2.82539436E+00  6.40121692E-01  1.61277759E-01  1.10000000E+00  1.87311370E+01
  2.82539436E+00  6.40121692E-01  1.61277759E-01  1.10000000E+00  1.87311370E+01
  2.82539436E+00  6.40121692E-01  1.61277759E-01  1.10000000E+00
Contraction coefficients                   R   N=          89
  1.83473713E-03  1.40373228E-02  6.88426223E-02  2.32184443E-01  4.67941348E-01
  3.62311985E-01 -1.19332420E-01 -1.60854152E-01  1.14345644E+00  1.00000000E+00
  1.00000000E+00  1.83473713E-03  1.40373228E-02  6.88426223E-02  2.32184443E-01
  4.67941348E-01  3.62311985E-01 -1.19332420E-01 -1.60854152E-01  1.14345644E+00
  1.00000000E+00  1.00000000E+00  3.34946043E-02  2.34726953E-01  8.13757326E-01
  1.00000000E+00  1.00000000E+00  3.34946043E-02  2.34726953E-01  8.13757326E-01
  1.00000000E+00  1.00000000E+00  3.34946043E-02  2.34726953E-01  8.13757326E-01
  1.00000000E+00  1.00000000E+00  1.83473713E-03  1.40373228E-02  6.88426223E-02
  2.32184443E-01  4.67941348E-01  3.62311985E-01 -1.19332420E-01 -1.60854152E-01
  1.14345644E+00  1.00000000E+00  1.00000000E+00  3.34946043E-02  2.34726953E-01
  8.13757326E-01  1.00000000E+00  1.00000000E+00  3.34946043E-02  2.34726953E-01
  8.13757326E-01  1.00000000E+00  1.00000000E+00  3.34946043E-02  2.34726953E-01
  8.13757326E-01  1.00000000E+00  1.00000000E+00  1.83473713E-03  1.40373228E-02
  6.88426223E-02  2.32184443E-01  4.67941348E-01  3.62311985E-01 -1.19332420E-01
 -1.60854152E-01  1.14345644E+00  1.00000000E+00  1.00000000E+00  3.34946043E-02
  2.34726953E-01  8.13757326E-01  1.00000000E+00  1.00000000E+00  3.34946043E-02
  2.34726953E-01  8.13757326E-01  1.00000000E+00  1.00000000E+00  3.34946043E-02
  2.34726953E-01  8.13757326E-01  1.00000000E+00  1.00000000E+00
P(S=P) Contraction coefficients            R   N=          89
  0.00000000E+00  0.00000000E+00  0.00000000E+00  0.00000000E+00  0.00000000E+00
  0.00000000E+00  6.89990666E-02  3.16423961E-01  7.44308291E-01  1.00000000E+00
  0.00000000E+00  0.00000000E+00  0.00000000E+00  0.00000000E+00  0.00000000E+00
  0.00000000E+00  0.00000000E+00  6.89990666E-02  3.16423961E-01  7.44308291E-01
  1.00000000E+00  0.00000000E+00  0.00000000E+00  0.00000000E+00  0.00000000E+00
  0.00000000E+00  0.00000000E+00  0.00000000E+00  0.00000000E+00  0.00000000E+00
  0.00000000E+00  0.00000000E+00  0.00000000E+00  0.00000000E+00  0.00000000E+00
  0.00000000E+00  0.00000000E+00  0.00000000E+00  0.00000000E+00  0.00000000E+00
  0.00000000E+00  0.00000000E+00  0.00000000E+00  6.89990666E-02  3.16423961E-01
  7.44308291E-01  1.00000000E+00  0.00000000E+00  0.00000000E+00  0.00000000E+00
  0.00000000E+00  0.00000000E+00  0.00000000E+00  0.00000000E+00  0.00000000E+00
  0.00000000E+00  0.00000000E+00  0.00000000E+00  0.00000000E+00  0.00000000E+00
  0.00000000E+00  0.00000000E+00  0.00000000E+00  0.00000000E+00  0.00000000E+00
  0.00000000E+00  0.00000000E+00  0.00000000E+00  0.00000000E+00  6.89990666E-02
  3.16423961E-01  7.44308291E-01  1.00000000E+00  0.00000000E+00  0.00000000E+00
  0.00000000E+00  0.00000000E+00  0.00000000E+00  0.00000000E+00  0.00000000E+00
  0.00000000E+00  0.00000000E+00  0.00000000E+00  0.00000000E+00  0.00000000E+00
  0.00000000E+00  0.00000000E+00  0.00000000E+00  0.00000000E+00
Coordinates of each shell                  R   N=         129
  1.37756399E-05  1.57593262E-01  1.23806869E-01  1.37756399E-05  1.57593262E-01
  1.23806869E-01  1.37756399E-05  1.57593262E-01  1.23806869E-01  1.37756399E-05
  1.57593262E-01  1.23806869E-01 -2.44868355E+00 -1.32872677E+00 -5.10061058E-02
 -2.44868355E+00 -1.32872677E+00 -5.10061058E-02 -2.44868355E+00 -1.32872677E+00
 -5.10061058E-02 -2.44868355E+00 -1.32872677E+00 -5.10061058E-02 -2.55981416E+00
 -2.15000762E+00 -1.92439029E+00 -2.55981416E+00 -2.15000762E+00 -1.92439029E+00
 -2.55981416E+00 -2.15000762E+00 -1.92439029E+00 -4.09690775E+00 -1.55663047E-01
  2.50250122E-01 -4.09690775E+00 -1.55663047E-01  2.50250122E-01 -4.09690775E+00
 -1.55663047E-01  2.50250122E-01 -2.45116259E+00 -2.85385771E+00  1.31021731E+00
 -2.45116259E+00 -2.85385771E+00  1.31021731E+00 -2.45116259E+00 -2.85385771E+00
  1.31021731E+00  2.44894572E+00 -1.32829047E+00 -5.10039042E-02  2.44894572E+00
 -1.32829047E+00 -5.10039042E-02  2.44894572E+00 -1.32829047E+00 -5.10039042E-02
  2.44894572E+00 -1.32829047E+00 -5.10039042E-02  2.45098477E+00 -2.85429404E+00
  1.30924155E+00  2.45098477E+00 -2.85429404E+00  1.30924155E+00  2.45098477E+00
 -2.85429404E+00  1.30924155E+00  4.09689976E+00 -1.55238260E-01  2.51781755E-01
  4.09689976E+00 -1.55238260E-01  2.51781755E-01  4.09689976E+00 -1.55238260E-01
  2.51781755E-01  2.56099940E+00 -2.14833699E+00 -1.92487342E+00  2.56099940E+00
 -2.14833699E+00 -1.92487342E+00  2.56099940E+00 -2.14833699E+00 -1.92487342E+00
 -2.86449945E-04  2.75303362E+00 -1.69078526E-01 -2.86449945E-04  2.75303362E+00
 -1.69078526E-01 -2.86449945E-04  2.75303362E+00 -1.69078526E-01 -2.86449945E-04
  2.75303362E+00 -1.69078526E-01 -1.26352546E-04  1.19945141E+00  1.91498010E+00
 -1.26352546E-04  1.19945141E+00  1.91498010E+00 -1.26352546E-04  1.19945141E+00
  1.91498010E+00  1.74745800E+00  3.79834915E+00 -1.51834117E-01  1.74745800E+00
  3.79834915E+00 -1.51834117E-01  1.74745800E+00  3.79834915E+00 -1.51834117E-01
 -1.74826807E+00  3.79793927E+00 -1.51683000E-01 -1.74826807E+00  3.79793927E+00
 -1.51683000E-01 -1.74826807E+00  3.79793927E+00 -1.51683000E-01
Constraint Structure                       R   N=          39
  2.57869118E-05  1.07609387E-01  6.91937699E-01 -2.37046101E+00 -1.27923283E+00
 -1.97187269E-01 -2.47144358E+00 -1.36316893E+00 -2.26412243E+00 -4.08392282E+00
 -3.37646619E-01  4.85102160E-01 -2.39447749E+00 -3.22050296E+00  5.20799798E-01
  2.37019557E+00 -1.27969100E+00 -1.97256281E-01  2.39283284E+00 -3.22166509E+00
  5.18869501E-01  4.08377221E+00 -3.39620239E-01  4.86832084E-01  2.47223626E+00
 -1.36167695E+00 -2.26421774E+00  2.95661936E-04  2.78649656E+00 -2.29028098E-01
  3.42460014E-05  1.42052312E-01  2.76379282E+00  1.75333385E+00  3.84555859E+00
 -3.28471552E-01 -1.75270157E+00  3.84557720E+00 -3.29380946E-01
Num ILSW                                   I              100
ILSW                                       I   N=         100
           0           1           0           0           2           0
           0           0           3           0           0          -1
           0           0           0           0           2           0
           0           0           1           0           1           0
           1           0           0           0           0           0
           0           0      100000           0          -1           0
           0           0           0           0           0           0
           0           0           0           1           0           0
           0           0           1           0           0           0
           0           0           4          41           0           0
           0           0           0           0           0           0
           0           0           0           0           0           0
           0           0           0           0           0           0
           0           0           0           0           0           0
           0           0           0           0           0           0
           0           0           0           0           0           0
           0           0           0           0
Num RLSW                                   I               41
RLSW                                       R   N=          41
  1.00000000E+00  1.00000000E+00  1.00000000E+00  1.00000000E+00  1.00000000E+00
  0.00000000E+00  0.00000000E+00  1.00000000E+00  0.00000000E+00  0.00000000E+00
  0.00000000E+00  0.00000000E+00  1.00000000E+00  0.00000000E+00  0.00000000E+00
  0.00000000E+00  0.00000000E+00  1.00000000E+00  0.00000000E+00  0.00000000E+00
  0.00000000E+00  0.00000000E+00  1.00000000E+00  0.00000000E+00  0.00000000E+00
  0.00000000E+00  0.00000000E+00  1.00000000E+00  0.00000000E+00  0.00000000E+00
  0.00000000E+00  0.00000000E+00  1.00000000E+00  0.00000000E+00  0.00000000E+00
  0.00000000E+00  0.00000000E+00  0.00000000E+00  1.00000000E+00  1.00000000E+00
  0.00000000E+00
MxBond                                     I                4
NBond                                      I   N=          13
           4           4           1           1           1           4
           1           1           1           3           1           1
           1
IBond                                      I   N=          52
           2           6          10          11           1           3
           4           5           2           0           0           0
           2           0           0           0           2           0
           0           0           1           7           8           9
           6           0           0           0           6           0
           0           0           6           0           0           0
           1          12          13           0           1           0
           0           0          10           0           0           0
          10           0           0           0
RBond                                      R   N=          52
  1.00000000E+00  1.00000000E+00  1.00000000E+00  1.00000000E+00  1.00000000E+00
  1.00000000E+00  1.00000000E+00  1.00000000E+00  1.00000000E+00  0.00000000E+00
  0.00000000E+00  0.00000000E+00  1.00000000E+00  0.00000000E+00  0.00000000E+00
  0.00000000E+00  1.00000000E+00  0.00000000E+00  0.00000000E+00  0.00000000E+00
  1.00000000E+00  1.00000000E+00  1.00000000E+00  1.00000000E+00  1.00000000E+00
  0.00000000E+00  0.00000000E+00  0.00000000E+00  1.00000000E+00  0.00000000E+00
  0.00000000E+00  0.00000000E+00  1.00000000E+00  0.00000000E+00  0.00000000E+00
  0.00000000E+00  1.00000000E+00  1.00000000E+00  1.00000000E+00  0.00000000E+00
  1.00000000E+00  0.00000000E+00  0.00000000E+00  0.00000000E+00  1.00000000E+00
  0.00000000E+00  0.00000000E+00  0.00000000E+00  1.00000000E+00  0.00000000E+00
  0.00000000E+00  0.00000000E+00
Virial Ratio                               R      1.999527251555319E+00
SCF Energy                                 R     -1.564126802562446E+02
Total Energy                               R     -1.564126802562446E+02
RMS Force                                  R      1.661912840664103E-02
RMS Density                                R      5.305573602358353E-09
External E-field                           R   N=          35
  0.00000000E+00  0.00000000E+00  0.00000000E+00  0.00000000E+00  0.00000000E+00
  0.00000000E+00  0.00000000E+00  0.00000000E+00  0.00000000E+00  0.00000000E+00
  0.00000000E+00  0.00000000E+00  0.00000000E+00  0.00000000E+00  0.00000000E+00
  0.00000000E+00  0.00000000E+00  0.00000000E+00  0.00000000E+00  0.00000000E+00
  0.00000000E+00  0.00000000E+00  0.00000000E+00  0.00000000E+00  0.00000000E+00
  0.00000000E+00  0.00000000E+00  0.00000000E+00  0.00000000E+00  0.00000000E+00
  0.00000000E+00  0.00000000E+00  0.00000000E+00  0.00000000E+00  0.00000000E+00
IOpCl                                      I                0
IROHF                                      I                0
Alpha Orbital Energies                     R   N=         105
 -1.15601193E+01 -1.15119953E+01 -1.14200838E+01 -1.14200642E+01 -1.40339115E+00
 -1.18765190E+00 -1.15278836E+00 -1.01001282E+00 -8.95417280E-01 -8.54575730E-01
 -8.38264132E-01 -7.47704354E-01 -7.38964846E-01 -7.38196186E-01 -7.07846339E-01
 -7.02896971E-01 -1.30539702E-01  1.43358793E-02  5.53451942E-02  7.53383283E-02
  1.07728840E-01  1.17282765E-01  1.26939372E-01  1.38560462E-01  1.66050068E-01
  1.66351353E-01  1.88774945E-01  2.57421493E-01  2.81890486E-01  4.49132030E-01
  4.83992764E-01  4.94662924E-01  5.38749161E-01  5.58374506E-01  6.00002909E-01
  6.40447193E-01  7.07421717E-01  7.48425327E-01  7.50827443E-01  7.92458978E-01
  8.31981357E-01  8.42162015E-01  9.15329656E-01  9.26190554E-01  9.36810311E-01
  9.67130075E-01  9.68415538E-01  9.95984727E-01  1.01662866E+00  1.04466395E+00
  1.07297404E+00  1.16404960E+00  1.25757516E+00  1.33504766E+00  1.42083400E+00
  1.50491048E+00  1.67631797E+00  1.68937886E+00  1.74143359E+00  1.82706985E+00
  1.83822644E+00  1.89439103E+00  1.97377967E+00  2.00589414E+00  2.07529894E+00
  2.08157164E+00  2.16036270E+00  2.16219559E+00  2.18293116E+00  2.20967415E+00
  2.22518367E+00  2.26173798E+00  2.27080172E+00  2.36758004E+00  2.38834534E+00
  2.41897323E+00  2.43741683E+00  2.48756336E+00  2.54006477E+00  2.59234707E+00
  2.67705980E+00  2.74963597E+00  2.76633931E+00  2.81748493E+00  2.83967828E+00
  2.85216663E+00  2.91488512E+00  2.99842510E+00  3.03264168E+00  3.04952319E+00
  3.09660333E+00  3.17246897E+00  3.34549318E+00  3.42144364E+00  3.44343702E+00
  3.49487278E+00  3.61998598E+00  3.64211497E+00  3.65492144E+00  3.68753965E+00
  3.70357845E+00  4.47864958E+00  4.51090884E+00  4.71889046E+00  4.84759353E+00
Alpha MO coefficients                      R   N=       11025
  1.33632861E-02  9.33345544E-04  1.44547279E-08 -1.72305794E-04  2.25283746E-04
 -1.00863728E-03  6.61192343E-08  8.63694687E-04 -1.43204567E-03 -2.85809672E-05
 -3.79223685E-04  1.31931230E-04  3.98768652E-08  3.86883049E-09  1.10620242E-05
 -8.13949575E-05 -2.75158919E-04  3.37394545E-05 -9.49279923E-06  3.92918304E-05
  1.28117586E-03  2.66525904E-04  4.66436833E-04  1.09083675E-04 -5.16385726E-06
  4.25425015E-05 -9.66434768E-05  3.87589394E-05  5.15055310E-05  2.61453532E-05
 -2.85139158E-05 -1.54546220E-04 -2.98801743E-05 -4.28908527E-05  1.51665163E-05
 -9.74162464E-05 -2.27971319E-04 -1.54858051E-05 -9.98382375E-06 -1.14299636E-06
 -1.87284818E-05  4.10811782E-05  1.54874823E-05  5.15985985E-07 -1.89091663E-05
 -8.13639920E-05 -2.75065447E-04 -3.37638898E-05 -9.57376770E-06  3.92922967E-05
  1.28055288E-03 -2.66259233E-04  4.66825145E-04  1.09104701E-04 -5.11327812E-06
  4.25251680E-05 -9.66059418E-05 -3.87576551E-05 -5.14783185E-05  2.61722511E-05
 -1.86998258E-05  4.16338657E-05 -1.55106272E-05  5.45657695E-07 -1.89229738E-05
 -9.74219196E-05 -2.28270264E-04  1.55158550E-05 -1.00011634E-05 -1.12439343E-06
 -2.85173292E-05 -1.54408650E-04  2.98696137E-05 -4.29291270E-05  1.51795316E-05
  9.95701367E-01  2.71654121E-02  8.51679447E-08 -4.76648275E-04  8.81925526E-04
 -1.14404726E-02 -1.70757559E-07  5.98047525E-04 -9.38651639E-04 -1.35354169E-03
 -1.15070287E-03 -2.37814243E-03 -9.14528822E-09 -3.89997264E-08 -5.90325522E-05
  2.99678181E-04  2.47501106E-03  2.19130881E-08 -1.37027499E-04  2.34433921E-04
 -1.58909542E-04  2.07250647E-03  2.04578843E-04  6.06153192E-05  3.62012528E-05
 -1.58911434E-04  2.07244077E-03 -2.04580544E-04  6.05657691E-05  3.62071154E-05
  9.95762540E-01  2.85060375E-02 -1.70318579E-07  1.39612666E-03  9.65001073E-04
 -1.80293628E-02  4.45848624E-07 -2.23927698E-03 -1.25563129E-03 -1.54776358E-03
 -9.16780471E-04 -1.57285714E-03 -1.20381516E-07 -5.88252384E-08  2.34280687E-04
  3.24630552E-03  1.75886389E-04  7.21507443E-05  2.19916706E-05 -3.87399786E-07
  3.18222395E-03  8.79346624E-04  1.32639209E-03  4.17929145E-04 -4.20357339E-04
 -1.94976417E-04 -1.42344913E-04 -1.27240856E-04  3.38780411E-06 -7.53820684E-06
 -9.19367330E-05  3.30573497E-04  5.84397451E-05  2.28089740E-05  5.29322653E-05
 -1.29422679E-04 -4.53759457E-04  3.32454275E-05 -4.64211217E-06 -1.33395160E-05
 -1.12995022E-04  1.60674980E-04  5.80804970E-05  2.39506961E-05 -4.64565166E-05
  3.24645811E-03  1.75930810E-04 -7.21266390E-05  2.19684342E-05 -4.76490742E-07
  3.18180610E-03 -8.79510913E-04  1.32608864E-03  4.18573621E-04 -4.20395950E-04
 -1.94924204E-04 -1.42351628E-04  1.27202028E-04 -3.35007157E-06 -7.51329212E-06
 -1.12934716E-04  1.60532942E-04 -5.80599222E-05  2.39661645E-05 -4.64692329E-05
 -1.29423684E-04 -4.53775730E-04 -3.32513927E-05 -4.62389363E-06 -1.33748699E-05
 -9.19326983E-05  3.30917547E-04 -5.84970861E-05  2.27807399E-05  5.29404873E-05
 -1.36515053E-02 -1.99091911E-04 -3.55837023E-08  2.13504925E-04  2.38279205E-05
  4.25795747E-03  3.30768048E-07 -2.13404523E-03 -4.68572655E-04 -5.47233643E-05
 -5.85006646E-04  8.61052282E-05  6.94433240E-08 -1.33885462E-08  1.75599055E-04
 -2.79171774E-05  3.22772381E-03 -3.09805176E-08  1.86542847E-04  5.11304084E-04
 -7.45838442E-06  9.93934082E-05 -7.17676652E-05 -3.89132455E-05  4.10831472E-05
 -7.43258990E-06  9.94955744E-05  7.17750564E-05 -3.89128160E-05  4.10694559E-05
 -8.38795939E-05  3.74316468E-06  1.10834420E-05 -8.99563223E-07 -4.53324977E-07
  6.97092929E-05 -2.69370357E-03 -1.82810538E-05  1.66835085E-06 -1.19155490E-05
 -7.03003836E-06 -3.02418280E-06 -3.19958462E-04 -2.77837854E-05 -3.66136338E-07
  7.15885594E-01  2.06919027E-02  4.00662878E-04  1.53098341E-04 -4.98149776E-06
 -1.18242712E-02 -1.30678346E-03 -1.64718920E-04  1.23664570E-04 -1.18602985E-03
 -1.16647517E-03 -1.08112394E-03 -9.68189256E-05 -1.99341976E-05 -8.78032015E-06
  1.58965232E-04  2.08465206E-03  7.38235373E-05 -4.44797734E-05 -9.71731591E-05
  3.85114081E-05  1.39560666E-03 -1.05288159E-04  1.03671787E-04  1.88711070E-05
  1.56294472E-04  1.99707684E-03  8.01806921E-05 -7.54427238E-05  5.56654368E-05
 -6.92211712E-01 -2.00213814E-02  3.92871579E-04 -1.45098058E-04  5.70797710E-06
  1.14893885E-02 -1.29743003E-03  1.47050803E-04 -1.27411062E-04  1.14397023E-03
  1.12496228E-03  1.03977498E-03 -9.48604785E-05 -1.92477125E-05  8.33016040E-06
 -1.55594745E-04 -1.94413902E-03  8.05338223E-05  7.36208182E-05 -5.28686018E-05
 -3.58366576E-05 -1.33179472E-03 -1.03443860E-04 -1.00999571E-04 -1.83286331E-05
 -1.58055919E-04 -2.03185959E-03  7.44933896E-05  4.38722139E-05  9.38712580E-05
  1.18621855E-06 -5.90225478E-06  1.31817885E-04  1.88776237E-06  1.07833805E-07
  1.08078911E-05 -3.36567638E-04 -9.57347252E-06 -4.57989617E-07  8.25725657E-09
  9.65858235E-07 -2.87341908E-06 -6.76002989E-05  4.17547032E-05 -4.82481028E-07
 -3.87400324E-06  1.49112327E-06 -4.35180162E-05 -1.48577109E-06 -9.21242632E-07
  8.32854140E-05  2.80478142E-04 -1.12569081E-05 -4.72690508E-05  8.18252560E-07
 -8.47288189E-05 -2.77833227E-04 -1.07550414E-05  4.84546729E-05 -8.62110345E-07
 -4.99456223E-03  2.23571168E-04 -1.82380158E-07 -5.22918970E-05 -2.74777406E-05
  4.14507156E-03  4.53439148E-05 -1.07832004E-03  9.04097460E-05 -7.10651110E-04
 -4.16120395E-04 -1.79139805E-04  5.36340999E-06  4.84905983E-07 -2.04714528E-05
  6.92120323E-01  1.95971225E-02  2.25559876E-04  2.35492339E-04  1.91862307E-05
 -9.76313769E-03 -2.57342104E-04 -5.24071467E-04 -8.84613900E-05 -1.23205406E-03
 -1.21492786E-03 -1.21147611E-03 -5.61273250E-05 -2.16228881E-05 -1.15542846E-05
  2.13834158E-05  1.55146818E-03 -2.08485329E-05 -1.56092103E-05 -9.75724593E-05
  7.87845407E-05  1.87332960E-03 -5.26974300E-05  7.82081271E-05  1.86845726E-05
  2.12382314E-05  1.52309883E-03 -1.34770852E-05 -5.46804988E-05  8.03302912E-05
  7.15797212E-01  2.02817272E-02 -2.38953044E-04  2.40513530E-04  1.90421670E-05
 -1.01550728E-02  3.01199085E-04 -5.29218237E-04 -8.46903775E-05 -1.27124126E-03
 -1.25344680E-03 -1.24715979E-03  5.93364858E-05  2.22548725E-05 -1.18311506E-05
  2.64387729E-05  1.58967781E-03  1.07108546E-05 -5.72197953E-05  8.20948382E-05
  8.00373442E-05  1.91919682E-03  5.61924411E-05  8.16472056E-05  1.93947065E-05
  2.67655739E-05  1.62033895E-03  1.84319352E-05 -1.70296087E-05 -1.00812651E-04
  7.06982277E-05 -3.49023397E-04 -2.23292822E-06  1.10961165E-04  7.18282927E-06
  6.35092020E-04  5.68245195E-06 -5.71630620E-04 -2.85809776E-05  3.71680057E-07
  5.97996077E-05 -1.69864141E-04  1.13484070E-06 -7.03866338E-07 -2.92449443E-05
 -2.29183596E-04  9.14876212E-05  7.29340639E-07 -8.77009483E-05 -5.43606158E-05
 -4.44916246E-05  8.01936861E-05 -1.51349024E-05  3.58525854E-05 -1.49033952E-06
 -4.16473400E-05  8.94314556E-05  1.55008366E-05  3.42624142E-05 -1.45521916E-06
 -1.53458620E-01  2.90829867E-01 -1.22710026E-05  9.78984355E-02  2.96652507E-02
  2.15250429E-01 -6.47240357E-07  1.84164126E-02  1.70662373E-02 -1.76988860E-03
  1.44626250E-02 -6.82207328E-03 -2.46500012E-06 -7.31303023E-07  5.85249809E-03
 -5.10464246E-02  9.42466196E-02  4.13379446E-02  3.20977636E-02  5.10459341E-03
  5.89182709E-02  3.72132437E-03  2.43539291E-03 -3.93039407E-04  5.89970924E-03
  1.61793626E-03 -2.68109540E-03  6.82613904E-03  8.45888162E-04  9.18319540E-04
  2.22993101E-02  9.10347404E-04  5.58246374E-04  1.34745293E-03  2.28866977E-03
  2.52227181E-02  3.04602776E-03  2.58321301E-03 -1.26532339E-03 -3.47567188E-04
  2.24868387E-02  1.84894452E-04  2.11890797E-04  2.06604115E-03 -1.58555568E-03
 -5.10461708E-02  9.42465165E-02 -4.13437433E-02  3.20903183E-02  5.10533070E-03
  5.89162545E-02 -3.72210617E-03  2.43180184E-03 -3.95698705E-04  5.90155352E-03
  1.61559852E-03 -2.68088365E-03 -6.82522060E-03 -8.45827498E-04  9.18463335E-04