 Entering Gaussian System, Link 0=g09
 Input=04_24_Homework42c_Interm1.com.tmp
 Output=04_24_Homework42c_Interm1.com.log
 Initial command:
 /share/apps/NYUAD/gaussian/09.D.01/l1.exe "/home/sgn228/homework/4/2cint1/Gau-31944.inp" -scrdir="/home/sgn228/homework/4/2cint1/"
 Entering Link 1 = /share/apps/NYUAD/gaussian/09.D.01/l1.exe PID=     31945.
  
 Copyright (c) 1988,1990,1992,1993,1995,1998,2003,2009,2013,
            Gaussian, Inc.  All Rights Reserved.
  
 This is part of the Gaussian(R) 09 program.  It is based on
 the Gaussian(R) 03 system (copyright 2003, Gaussian, Inc.),
 the Gaussian(R) 98 system (copyright 1998, Gaussian, Inc.),
 the Gaussian(R) 94 system (copyright 1995, Gaussian, Inc.),
 the Gaussian 92(TM) system (copyright 1992, Gaussian, Inc.),
 the Gaussian 90(TM) system (copyright 1990, Gaussian, Inc.),
 the Gaussian 88(TM) system (copyright 1988, Gaussian, Inc.),
 the Gaussian 86(TM) system (copyright 1986, Carnegie Mellon
 University), and the Gaussian 82(TM) system (copyright 1983,
 Carnegie Mellon University). Gaussian is a federally registered
 trademark of Gaussian, Inc.
  
 This software contains proprietary and confidential information,
 including trade secrets, belonging to Gaussian, Inc.
  
 This software is provided under written license and may be
 used, copied, transmitted, or stored only in accord with that
 written license.
  
 The following legend is applicable only to US Government
 contracts under FAR:
  
                    RESTRICTED RIGHTS LEGEND
  
 Use, reproduction and disclosure by the US Government is
 subject to restrictions as set forth in subparagraphs (a)
 and (c) of the Commercial Computer Software - Restricted
 Rights clause in FAR 52.227-19.
  
 Gaussian, Inc.
 340 Quinnipiac St., Bldg. 40, Wallingford CT 06492
  
  
 ---------------------------------------------------------------
 Warning -- This program may not be used in any manner that
 competes with the business of Gaussian, Inc. or will provide
 assistance to any competitor of Gaussian, Inc.  The licensee
 of this program is prohibited from giving any competitor of
 Gaussian, Inc. access to this program.  By using this program,
 the user acknowledges that Gaussian, Inc. is engaged in the
 business of creating and licensing software in the field of
 computational chemistry and represents and warrants to the
 licensee that it is not a competitor of Gaussian, Inc. and that
 it will not use this program in any manner prohibited above.
 ---------------------------------------------------------------
  

 Cite this work as:
 Gaussian 09, Revision D.01,
 M. J. Frisch, G. W. Trucks, H. B. Schlegel, G. E. Scuseria, 
 M. A. Robb, J. R. Cheeseman, G. Scalmani, V. Barone, B. Mennucci, 
 G. A. Petersson, H. Nakatsuji, M. Caricato, X. Li, H. P. Hratchian, 
 A. F. Izmaylov, J. Bloino, G. Zheng, J. L. Sonnenberg, M. Hada, 
 M. Ehara, K. Toyota, R. Fukuda, J. Hasegawa, M. Ishida, T. Nakajima, 
 Y. Honda, O. Kitao, H. Nakai, T. Vreven, J. A. Montgomery, Jr., 
 J. E. Peralta, F. Ogliaro, M. Bearpark, J. J. Heyd, E. Brothers, 
 K. N. Kudin, V. N. Staroverov, T. Keith, R. Kobayashi, J. Normand, 
 K. Raghavachari, A. Rendell, J. C. Burant, S. S. Iyengar, J. Tomasi, 
 M. Cossi, N. Rega, J. M. Millam, M. Klene, J. E. Knox, J. B. Cross, 
 V. Bakken, C. Adamo, J. Jaramillo, R. Gomperts, R. E. Stratmann, 
 O. Yazyev, A. J. Austin, R. Cammi, C. Pomelli, J. W. Ochterski, 
 R. L. Martin, K. Morokuma, V. G. Zakrzewski, G. A. Voth, 
 P. Salvador, J. J. Dannenberg, S. Dapprich, A. D. Daniels, 
 O. Farkas, J. B. Foresman, J. V. Ortiz, J. Cioslowski, 
 and D. J. Fox, Gaussian, Inc., Wallingford CT, 2013.
 
 ******************************************
 Gaussian 09:  ES64L-G09RevD.01 24-Apr-2013
                22-Apr-2015 
 ******************************************
 %NProcShared=12
 Will use up to   12 processors via shared memory.
 %LindaWorkers=compute-1-28:12
 %UseSSH
 %DebugLinda
 %NProcShared=12
 Will use up to   12 processors via shared memory.
 %Chk=04_24_Homework42a_Interm1.chk
 SetLPE:  input flags=""
 SetLPE:    new flags="-vv -opt 'Tsnet.Node.lindarsharg: ssh' -mp 12 -nodelist 'compute-1-28.local' -opt 'Tsnet.compute-1-28_local.speedfactor: 12'"
 Will use up to   12 processors via Linda.
 ---------------------------------------
 #n RHF/6-31G(d,p) pop=Reg Opt formcheck
 ---------------------------------------
 1/18=20,19=15,38=1/1,3;
 2/9=110,12=2,17=6,18=5,40=1/2;
 3/5=1,6=6,7=101,11=1,16=1,25=1,30=1,71=1,116=1/1,2,3;
 4//1;
 5/5=2,38=5/2;
 6/28=1/1;
 7//1,2,3,16;
 1/18=20,19=15/3(2);
 2/9=110/2;
 99//99;
 2/9=110/2;
 3/5=1,6=6,7=101,11=1,16=1,25=1,30=1,71=1,116=1/1,2,3;
 4/5=5,16=3,69=1/1;
 5/5=2,38=5/2;
 7//1,2,3,16;
 1/18=20,19=15/3(-5);
 2/9=110/2;
 6/19=2,28=1/1;
 99/9=1/99;
 ------
 2bint1
 ------
 Symbolic Z-matrix:
 Charge =  1 Multiplicity = 1
 C
 C                    1    B1
 H                    1    B2       2    A2
 H                    1    B3       2    A3       3    D3       0
 H                    1    B4       2    A4       3    D4       0
 C                    2    B5       1    A5       3    D5       0
 H                    6    B6       2    A6       1    D6       0
 H                    6    B7       2    A7       1    D7       0
 H                    6    B8       2    A8       1    D8       0
 C                    2    B9       1    A9       3    D9       0
 H                    10   B10      2    A10      1    D10      0
 H                    10   B11      2    A11      1    D11      0
 H                    10   B12      2    A12      1    D12      0
       Variables:
  B1                    1.49348                  
  B2                    1.09435                  
  A2                  110.83201                  
  B3                    1.09411                  
  A3                  110.41652                  
  D3                  239.66679                  
  B4                    1.09435                  
  A4                  110.83083                  
  D4                  119.3334                   
  B5                    1.49349                  
  A5                  118.50966                  
  D5                  198.27996                  
  B6                    1.09435                  
  A6                  110.83235                  
  D6                   42.32794                  
  B7                    1.09435                  
  A7                  110.8307                   
  D7                  161.66138                  
  B8                    1.09411                  
  A8                  110.41658                  
  D8                  281.9947                   
  B9                    1.49348                  
  A9                  118.50956                  
  D9                   42.33467                  
  B10                   1.09435                  
  A10                 110.83064                  
  D10                 317.61118                  
  B11                   1.09435                  
  A11                 110.83234                  
  D11                 198.27765                  
  B12                   1.09411                  
  A12                 110.41651                  
  D12                  77.94436                  
 

 GradGradGradGradGradGradGradGradGradGradGradGradGradGradGradGradGradGrad
 Berny optimization.
 Initialization pass.
                           ----------------------------
                           !    Initial Parameters    !
                           ! (Angstroms and Degrees)  !
 --------------------------                            --------------------------
 ! Name  Definition              Value          Derivative Info.                !
 --------------------------------------------------------------------------------
 ! R1    R(1,2)                  1.4935         estimate D2E/DX2                !
 ! R2    R(1,3)                  1.0943         estimate D2E/DX2                !
 ! R3    R(1,4)                  1.0941         estimate D2E/DX2                !
 ! R4    R(1,5)                  1.0944         estimate D2E/DX2                !
 ! R5    R(2,6)                  1.4935         estimate D2E/DX2                !
 ! R6    R(2,10)                 1.4935         estimate D2E/DX2                !
 ! R7    R(6,7)                  1.0943         estimate D2E/DX2                !
 ! R8    R(6,8)                  1.0943         estimate D2E/DX2                !
 ! R9    R(6,9)                  1.0941         estimate D2E/DX2                !
 ! R10   R(10,11)                1.0943         estimate D2E/DX2                !
 ! R11   R(10,12)                1.0943         estimate D2E/DX2                !
 ! R12   R(10,13)                1.0941         estimate D2E/DX2                !
 ! A1    A(2,1,3)              110.832          estimate D2E/DX2                !
 ! A2    A(2,1,4)              110.4165         estimate D2E/DX2                !
 ! A3    A(2,1,5)              110.8308         estimate D2E/DX2                !
 ! A4    A(3,1,4)              108.5603         estimate D2E/DX2                !
 ! A5    A(3,1,5)              107.546          estimate D2E/DX2                !
 ! A6    A(4,1,5)              108.5611         estimate D2E/DX2                !
 ! A7    A(1,2,6)              118.5097         estimate D2E/DX2                !
 ! A8    A(1,2,10)             118.5096         estimate D2E/DX2                !
 ! A9    A(6,2,10)             118.5091         estimate D2E/DX2                !
 ! A10   A(2,6,7)              110.8323         estimate D2E/DX2                !
 ! A11   A(2,6,8)              110.8307         estimate D2E/DX2                !
 ! A12   A(2,6,9)              110.4166         estimate D2E/DX2                !
 ! A13   A(7,6,8)              107.5459         estimate D2E/DX2                !
 ! A14   A(7,6,9)              108.5602         estimate D2E/DX2                !
 ! A15   A(8,6,9)              108.5611         estimate D2E/DX2                !
 ! A16   A(2,10,11)            110.8306         estimate D2E/DX2                !
 ! A17   A(2,10,12)            110.8323         estimate D2E/DX2                !
 ! A18   A(2,10,13)            110.4165         estimate D2E/DX2                !
 ! A19   A(11,10,12)           107.546          estimate D2E/DX2                !
 ! A20   A(11,10,13)           108.561          estimate D2E/DX2                !
 ! A21   A(12,10,13)           108.5602         estimate D2E/DX2                !
 ! D1    D(3,1,2,6)           -161.72           estimate D2E/DX2                !
 ! D2    D(3,1,2,10)            42.3347         estimate D2E/DX2                !
 ! D3    D(4,1,2,6)             77.9467         estimate D2E/DX2                !
 ! D4    D(4,1,2,10)           -77.9985         estimate D2E/DX2                !
 ! D5    D(5,1,2,6)            -42.3866         estimate D2E/DX2                !
 ! D6    D(5,1,2,10)           161.6681         estimate D2E/DX2                !
 ! D7    D(1,2,6,7)             42.3279         estimate D2E/DX2                !
 ! D8    D(1,2,6,8)            161.6614         estimate D2E/DX2                !
 ! D9    D(1,2,6,9)            -78.0053         estimate D2E/DX2                !
 ! D10   D(10,2,6,7)          -161.7267         estimate D2E/DX2                !
 ! D11   D(10,2,6,8)           -42.3932         estimate D2E/DX2                !
 ! D12   D(10,2,6,9)            77.9401         estimate D2E/DX2                !
 ! D13   D(1,2,10,11)          -42.3888         estimate D2E/DX2                !
 ! D14   D(1,2,10,12)         -161.7224         estimate D2E/DX2                !
 ! D15   D(1,2,10,13)           77.9444         estimate D2E/DX2                !
 ! D16   D(6,2,10,11)          161.6658         estimate D2E/DX2                !
 ! D17   D(6,2,10,12)           42.3322         estimate D2E/DX2                !
 ! D18   D(6,2,10,13)          -78.0011         estimate D2E/DX2                !
 --------------------------------------------------------------------------------
 Trust Radius=3.00D-01 FncErr=1.00D-07 GrdErr=1.00D-07
 Number of steps in this run=     61 maximum allowed number of steps=    100.
 GradGradGradGradGradGradGradGradGradGradGradGradGradGradGradGradGradGrad

                          Input orientation:                          
 ---------------------------------------------------------------------
 Center     Atomic      Atomic             Coordinates (Angstroms)
 Number     Number       Type             X           Y           Z
 ---------------------------------------------------------------------
      1          6           0        0.000000    0.000000    0.000000
      2          6           0        0.000000    0.000000    1.493480
      3          1           0        1.022809    0.000000   -0.389183
      4          1           0       -0.517845    0.885008   -0.381672
      5          1           0       -0.501069   -0.891676   -0.389162
      6          6           0       -1.246155   -0.411643    2.206333
      7          1           0       -1.697572   -1.286094    1.727627
      8          1           0       -1.029908   -0.679125    3.245223
      9          1           0       -1.975798    0.403632    2.201253
     10          6           0        0.970140    0.883833    2.206326
     11          1           0        1.953856    0.847243    1.728240
     12          1           0        1.096304    0.564839    3.245521
     13          1           0        0.618310    1.919814    2.200308
 ---------------------------------------------------------------------
                    Distance matrix (angstroms):
                    1          2          3          4          5
     1  C    0.000000
     2  C    1.493480   0.000000
     3  H    1.094350   2.142559   0.000000
     4  H    1.094110   2.137194   1.776770   0.000000
     5  H    1.094350   2.142544   1.765585   1.776779   0.000000
     6  C    2.567150   1.493490   3.471938   2.984880   2.742659
     7  H    2.742350   2.142572   3.679048   3.248781   2.463327
     8  H    3.471800   2.142551   4.228920   3.982849   3.678804
     9  H    2.985333   2.137203   3.983079   3.004805   3.250061
    10  C    2.567140   1.493480   2.742371   2.985270   3.471807
    11  H    2.742660   2.142542   2.463361   3.249994   3.678842
    12  H    3.471935   2.142563   3.679065   3.983029   4.228943
    13  H    2.984853   2.137194   3.248810   3.004711   3.982817
                    6          7          8          9         10
     6  C    0.000000
     7  H    1.094350   0.000000
     8  H    1.094350   1.765584   0.000000
     9  H    1.094110   1.776768   1.776778   0.000000
    10  C    2.567143   3.471948   2.742688   2.984823   0.000000
    11  H    3.471806   4.228954   3.678843   3.982802   1.094350
    12  H    2.742361   3.679090   2.463377   3.248737   1.094350
    13  H    2.985290   3.983037   3.250070   3.004697   1.094110
                   11         12         13
    11  H    0.000000
    12  H    1.765585   0.000000
    13  H    1.776778   1.776769   0.000000
 Stoichiometry    C4H9(1+)
 Framework group  C1[X(C4H9)]
 Deg. of freedom    33
 Full point group                 C1      NOp   1
 Largest Abelian subgroup         C1      NOp   1
 Largest concise Abelian subgroup C1      NOp   1
                         Standard orientation:                         
 ---------------------------------------------------------------------
 Center     Atomic      Atomic             Coordinates (Angstroms)
 Number     Number       Type             X           Y           Z
 ---------------------------------------------------------------------
      1          6           0       -1.125946   -0.963841    0.021127
      2          6           0       -0.000004   -0.000001   -0.162583
      3          1           0       -2.041818   -0.585484   -0.443229
      4          1           0       -1.317571   -1.128488    1.085668
      5          1           0       -0.893711   -1.926804   -0.444031
      6          6           0        1.397688   -0.493174    0.021126
      7          1           0        1.527935   -1.475573   -0.443125
      8          1           0        2.115508    0.189372   -0.444135
      9          1           0        1.636133   -0.576688    1.085667
     10          6           0       -0.271740    1.457014    0.021126
     11          1           0       -1.221789    1.737380   -0.444065
     12          1           0        0.513882    2.061007   -0.443193
     13          1           0       -0.318557    1.705283    1.085667
 ---------------------------------------------------------------------
 Rotational constants (GHZ):      8.0458747      8.0458129      4.3769779
 Standard basis: 6-31G(d,p) (6D, 7F)
 There are   105 symmetry adapted cartesian basis functions of A   symmetry.
 There are   105 symmetry adapted basis functions of A   symmetry.
   105 basis functions,   175 primitive gaussians,   105 cartesian basis functions
    16 alpha electrons       16 beta electrons
       nuclear repulsion energy       125.6785673006 Hartrees.
 NAtoms=   13 NActive=   13 NUniq=   13 SFac= 1.00D+00 NAtFMM=   60 NAOKFM=F Big=F
 Integral buffers will be    131072 words long.
 Raffenetti 1 integral format.
 Two-electron integral symmetry is turned on.
 One-electron integrals computed using PRISM.
 PrsmSu:  requested number of processors reduced to:  10 ShMem   1 Linda.
 NBasis=   105 RedAO= T EigKep=  6.23D-03  NBF=   105
 NBsUse=   105 1.00D-06 EigRej= -1.00D+00 NBFU=   105
 ExpMin= 1.61D-01 ExpMax= 3.05D+03 ExpMxC= 4.57D+02 IAcc=1 IRadAn=         1 AccDes= 0.00D+00
 Harris functional with IExCor=  205 and IRadAn=       1 diagonalized for initial guess.
 HarFok:  IExCor=  205 AccDes= 0.00D+00 IRadAn=         1 IDoV= 1 UseB2=F ITyADJ=14
 ICtDFT=  3500011 ScaDFX=  1.000000  1.000000  1.000000  1.000000
 FoFCou: FMM=F IPFlag=           0 FMFlag=      100000 FMFlg1=           0
         NFxFlg=           0 DoJE=T BraDBF=F KetDBF=T FulRan=T
         wScrn=  0.000000 ICntrl=     500 IOpCl=  0 I1Cent=   200000004 NGrid=           0
         NMat0=    1 NMatS0=      1 NMatT0=    0 NMatD0=    1 NMtDS0=    0 NMtDT0=    0
 Petite list used in FoFCou.
 Keep R1 ints in memory in canonical form, NReq=16423880.
 Requested convergence on RMS density matrix=1.00D-08 within 128 cycles.
 Requested convergence on MAX density matrix=1.00D-06.
 Requested convergence on             energy=1.00D-06.
 No special actions if energy rises.
 SCF Done:  E(RHF) =  -156.444904616     A.U. after   10 cycles
            NFock= 10  Conv=0.91D-08     -V/T= 2.0018

 **********************************************************************

            Population analysis using the SCF density.

 **********************************************************************

 Orbital symmetries:
       Occupied  (A) (A) (A) (A) (A) (A) (A) (A) (A) (A) (A) (A)
                 (A) (A) (A) (A)
       Virtual   (A) (A) (A) (A) (A) (A) (A) (A) (A) (A) (A) (A)
                 (A) (A) (A) (A) (A) (A) (A) (A) (A) (A) (A) (A)
                 (A) (A) (A) (A) (A) (A) (A) (A) (A) (A) (A) (A)
                 (A) (A) (A) (A) (A) (A) (A) (A) (A) (A) (A) (A)
                 (A) (A) (A) (A) (A) (A) (A) (A) (A) (A) (A) (A)
                 (A) (A) (A) (A) (A) (A) (A) (A) (A) (A) (A) (A)
                 (A) (A) (A) (A) (A) (A) (A) (A) (A) (A) (A) (A)
                 (A) (A) (A) (A) (A)
 The electronic state is 1-A.
 Alpha  occ. eigenvalues --  -11.58994 -11.44519 -11.44519 -11.44516  -1.34195
 Alpha  occ. eigenvalues --   -1.17848  -1.17848  -0.96063  -0.83982  -0.83982
 Alpha  occ. eigenvalues --   -0.82842  -0.76222  -0.76222  -0.73240  -0.72465
 Alpha  occ. eigenvalues --   -0.72465
 Alpha virt. eigenvalues --   -0.17702   0.03057   0.09068   0.09068   0.10879
 Alpha virt. eigenvalues --    0.10879   0.12281   0.14663   0.14663   0.16359
 Alpha virt. eigenvalues --    0.19332   0.23083   0.23083   0.48842   0.48843
 Alpha virt. eigenvalues --    0.52143   0.53348   0.53349   0.56192   0.67765
 Alpha virt. eigenvalues --    0.71381   0.71382   0.75652   0.75652   0.78330
 Alpha virt. eigenvalues --    0.82646   0.90613   0.90613   0.92753   0.93622
 Alpha virt. eigenvalues --    0.95986   0.96383   0.96383   1.01254   1.01254
 Alpha virt. eigenvalues --    1.18396   1.31657   1.31658   1.40922   1.40923
 Alpha virt. eigenvalues --    1.56350   1.76281   1.79494   1.79495   1.90446
 Alpha virt. eigenvalues --    1.90447   1.94633   1.94633   1.98017   2.13309
 Alpha virt. eigenvalues --    2.13545   2.13545   2.15946   2.18422   2.18423
 Alpha virt. eigenvalues --    2.21820   2.21820   2.23163   2.34619   2.34619
 Alpha virt. eigenvalues --    2.36759   2.46989   2.54350   2.65178   2.65179
 Alpha virt. eigenvalues --    2.71561   2.71562   2.80333   2.81483   2.81483
 Alpha virt. eigenvalues --    2.95585   2.97217   2.97218   3.00085   3.12314
 Alpha virt. eigenvalues --    3.12315   3.30936   3.37040   3.37040   3.56633
 Alpha virt. eigenvalues --    3.56821   3.56822   3.58636   3.64339   3.64339
 Alpha virt. eigenvalues --    4.29760   4.69000   4.69000   4.75429
     Molecular Orbital Coefficients:
                          12        13        14        15        16
                           O         O         O         O         O
     Eigenvalues --    -0.76222  -0.76222  -0.73240  -0.72465  -0.72465
   1 1   C  1S          0.00155  -0.00042   0.00000   0.01172   0.00763
   2        2S         -0.00618   0.00166   0.00000  -0.02563  -0.01669
   3        2PX         0.02924  -0.03696  -0.17522  -0.08615  -0.25160
   4        2PY         0.03981   0.02326   0.20471  -0.25471   0.06240
   5        2PZ         0.35042  -0.09436   0.00001   0.00814   0.00531
   6        3S          0.01050  -0.00278   0.00003  -0.02073  -0.01350
   7        3PX         0.02732  -0.02498  -0.10549  -0.02015  -0.13594
   8        3PY         0.03233   0.01191   0.12327  -0.13096   0.05814
   9        3PZ         0.20654  -0.05560   0.00001  -0.00217  -0.00142
  10        4XX        -0.00868   0.00298   0.00982  -0.01220   0.00896
  11        4YY        -0.01145   0.00244  -0.00980   0.00739  -0.01207
  12        4ZZ         0.01848  -0.00498  -0.00002   0.00460   0.00297
  13        4XY         0.00896  -0.00253  -0.00178  -0.01388  -0.01210
  14        4XZ        -0.00373   0.00151   0.00899  -0.00120   0.00945
  15        4YZ        -0.00349   0.00035  -0.01050   0.00845  -0.00645
  16 2   C  1S          0.00000   0.00000   0.00000   0.00000   0.00000
  17        2S          0.00000   0.00000   0.00002   0.00000   0.00000
  18        2PX         0.00309   0.00148  -0.00001   0.09101   0.31020
  19        2PY         0.00148  -0.00309   0.00000   0.31020  -0.09102
  20        2PZ         0.00000   0.00000   0.00001   0.00000   0.00000
  21        3S          0.00000   0.00000  -0.00007  -0.00001   0.00000
  22        3PX         0.01702   0.00816   0.00000   0.04328   0.14755
  23        3PY         0.00816  -0.01702   0.00000   0.14754  -0.04328
  24        3PZ         0.00000   0.00000  -0.00001   0.00000   0.00000
  25        4XX         0.00036   0.00335   0.00000  -0.01758   0.01955
  26        4YY        -0.00036  -0.00335   0.00000   0.01758  -0.01955
  27        4ZZ         0.00000   0.00000   0.00000   0.00000   0.00000
  28        4XY        -0.00387   0.00042   0.00000  -0.02257  -0.02029
  29        4XZ        -0.01655  -0.00789   0.00000   0.00150   0.00509
  30        4YZ        -0.00789   0.01655   0.00000   0.00509  -0.00149
  31 3   H  1S         -0.10385   0.04954   0.14392  -0.02498   0.15611
  32        2S         -0.06608   0.02902   0.09957  -0.01378   0.12649
  33        3PX        -0.00586   0.00256   0.00584  -0.00275   0.00508
  34        3PY         0.00215  -0.00066  -0.00023  -0.00305  -0.00143
  35        3PZ         0.00195   0.00033   0.00389  -0.00042   0.00433
  36 4   H  1S          0.21586  -0.05814  -0.00008   0.03032   0.01966
  37        2S          0.14341  -0.03864  -0.00007   0.02936   0.01906
  38        3PX         0.00411  -0.00184  -0.00257  -0.00078  -0.00371
  39        3PY         0.00390  -0.00019   0.00300  -0.00362   0.00137
  40        3PZ        -0.00914   0.00246   0.00001  -0.00224  -0.00145
  41 5   H  1S         -0.11485   0.00937  -0.14386   0.13267  -0.08586
  42        2S         -0.07185   0.00813  -0.09952   0.11011  -0.06368
  43        3PX         0.00118  -0.00039  -0.00067  -0.00196  -0.00289
  44        3PY        -0.00662   0.00080  -0.00580   0.00389  -0.00417
  45        3PZ         0.00151  -0.00126  -0.00389   0.00380  -0.00214
  46 6   C  1S         -0.00114  -0.00113   0.00000   0.00075  -0.01397
  47        2S          0.00453   0.00452   0.00000  -0.00164   0.03054
  48        2PX         0.02311   0.04335  -0.08966  -0.06968  -0.26422
  49        2PY        -0.04050   0.01713  -0.25411  -0.24210   0.07885
  50        2PZ        -0.25693  -0.25630   0.00001   0.00053  -0.00971
  51        3S         -0.00766  -0.00770   0.00003  -0.00133   0.02470
  52        3PX         0.02271   0.03498  -0.05400  -0.04648  -0.11576
  53        3PY        -0.02764   0.00730  -0.15300  -0.15115   0.03180
  54        3PZ        -0.15142  -0.15107   0.00001  -0.00014   0.00259
  55        4XX         0.00260   0.00316  -0.00623  -0.00980   0.01480
  56        4YY         0.01216   0.01157   0.00625   0.00952  -0.00909
  57        4ZZ        -0.01355  -0.01352  -0.00002   0.00027  -0.00547
  58        4XY         0.00379   0.00458  -0.00892  -0.01223  -0.01226
  59        4XZ        -0.00336  -0.00371   0.00460   0.00411   0.00539
  60        4YZ         0.00172   0.00072   0.01304   0.01251  -0.00114
  61 7   H  1S          0.09481   0.06515   0.14393   0.14770  -0.05641
  62        2S          0.05817   0.04271   0.09958   0.11645  -0.05130
  63        3PX        -0.00115  -0.00057  -0.00272  -0.00313  -0.00283
  64        3PY         0.00528   0.00405   0.00518   0.00486  -0.00182
  65        3PZ        -0.00069  -0.00186   0.00389   0.00396  -0.00180
  66 8   H  1S          0.06555   0.09480  -0.14384  -0.14068  -0.07197
  67        2S          0.04298   0.05817  -0.09951  -0.11019  -0.06352
  68        3PX        -0.00301  -0.00420   0.00536   0.00557  -0.00046
  69        3PY        -0.00281  -0.00338   0.00231   0.00146   0.00336
  70        3PZ        -0.00185  -0.00068  -0.00389  -0.00375  -0.00222
  71 9   H  1S         -0.15828  -0.15787  -0.00009   0.00185  -0.03609
  72        2S         -0.10517  -0.10488  -0.00008   0.00181  -0.03496
  73        3PX         0.00365   0.00416  -0.00131  -0.00119  -0.00339
  74        3PY        -0.00210  -0.00064  -0.00372  -0.00394   0.00096
  75        3PZ         0.00670   0.00668   0.00001  -0.00014   0.00267
  76 10  C  1S         -0.00041   0.00155   0.00000  -0.01247   0.00633
  77        2S          0.00165  -0.00618   0.00000   0.02727  -0.01385
  78        2PX        -0.04338  -0.00211   0.26490  -0.06698  -0.24364
  79        2PY         0.00496  -0.04936   0.04940  -0.26266   0.08156
  80        2PZ        -0.09350   0.35065   0.00001  -0.00867   0.00440
  81        3S         -0.00284   0.01048   0.00003   0.02206  -0.01120
  82        3PX        -0.02692   0.00101   0.15951  -0.05079  -0.14865
  83        3PY         0.00633  -0.04232   0.02973  -0.11825   0.02749
  84        3PZ        -0.05512   0.20666   0.00001   0.00232  -0.00117
  85        4XX         0.00487  -0.01737  -0.00356  -0.00842   0.01005
  86        4YY         0.00050  -0.00277   0.00358   0.01351  -0.01265
  87        4ZZ        -0.00493   0.01849  -0.00002  -0.00487   0.00249
  88        4XY         0.00022  -0.00345   0.01070  -0.01292  -0.01076
  89        4XZ         0.00097  -0.00078  -0.01359   0.00497   0.01201
  90        4YZ        -0.00121   0.00505  -0.00253   0.00589  -0.00028
  91 11  H  1S          0.04932  -0.10415  -0.14385   0.00801   0.15782
  92        2S          0.02888  -0.06629  -0.09952   0.00009   0.12719
  93        3PX         0.00239  -0.00592  -0.00469  -0.00030   0.00485
  94        3PY        -0.00109   0.00201   0.00348  -0.00385  -0.00250
  95        3PZ         0.00034   0.00194  -0.00389  -0.00005   0.00436
  96 12  H  1S          0.00902  -0.11470   0.14393  -0.12270  -0.09969
  97        2S          0.00791  -0.07173   0.09958  -0.10265  -0.07518
  98        3PX        -0.00079   0.00507  -0.00312   0.00391   0.00080
  99        3PY        -0.00037   0.00441  -0.00494   0.00124   0.00522
 100        3PZ        -0.00126   0.00153   0.00389  -0.00354  -0.00253
 101 13  H  1S         -0.05758   0.21601  -0.00008  -0.03218   0.01643
 102        2S         -0.03825   0.14352  -0.00007  -0.03119   0.01590
 103        3PX        -0.00131   0.00077   0.00388  -0.00126  -0.00390
 104        3PY         0.00129  -0.00561   0.00073  -0.00343   0.00089
 105        3PZ         0.00244  -0.00914   0.00001   0.00238  -0.00121
                          17        18        19        20        21
                           V         V         V         V         V
     Eigenvalues --    -0.17702   0.03057   0.09068   0.09068   0.10879
   1 1   C  1S         -0.00929  -0.07373   0.00001  -0.00010  -0.10567
   2        2S          0.01704   0.08281   0.01316  -0.04154   0.08953
   3        2PX         0.02516  -0.05116   0.17530  -0.04550  -0.04476
   4        2PY         0.02153  -0.04380  -0.14610  -0.13267  -0.03921
   5        2PZ        -0.05443   0.01505   0.00041  -0.00187   0.08432
   6        3S          0.05820   1.19379  -0.11798   0.37463   1.99109
   7        3PX         0.01864  -0.34159   0.73538   0.02115  -0.02957
   8        3PY         0.01588  -0.29245  -0.73621  -0.41397  -0.08722
   9        3PZ        -0.00059   0.01358  -0.03605   0.11109   0.35159
  10        4XX         0.00708  -0.00225   0.01476   0.00960   0.00237
  11        4YY         0.00752  -0.00343  -0.01740  -0.00123  -0.00809
  12        4ZZ        -0.01538  -0.00176   0.00369  -0.01170  -0.00797
  13        4XY        -0.00158   0.00438  -0.00361   0.00129  -0.00174
  14        4XZ         0.01988  -0.00267   0.00626   0.00592   0.00347
  15        4YZ         0.01703  -0.00229  -0.00962   0.00033   0.00081
  16 2   C  1S          0.02289  -0.01381   0.00000  -0.00001   0.00000
  17        2S         -0.03115   0.08574   0.00000   0.00000   0.00000
  18        2PX         0.00000   0.00000   0.07996  -0.04974   0.08506
  19        2PY         0.00000   0.00000  -0.04974  -0.07996   0.02055
  20        2PZ         0.48770  -0.01930   0.00001   0.00001   0.00000
  21        3S         -0.17528   0.23841   0.00011   0.00014  -0.00001
  22        3PX         0.00000   0.00000  -0.11699   0.07295   0.54002
  23        3PY         0.00000   0.00000   0.07295   0.11701   0.13036
  24        3PZ         0.60342   0.04534   0.00004   0.00005  -0.00001
  25        4XX         0.00530   0.01538  -0.02642  -0.01313  -0.00339
  26        4YY         0.00530   0.01538   0.02641   0.01313   0.00339
  27        4ZZ        -0.00484  -0.00655   0.00000   0.00000   0.00000
  28        4XY         0.00000   0.00000   0.01516  -0.03050   0.01198
  29        4XZ         0.00000   0.00000   0.01003  -0.00622  -0.00867
  30        4YZ         0.00000   0.00000  -0.00622  -0.01003  -0.00210
  31 3   H  1S          0.04979  -0.01319   0.06259   0.03164   0.03085
  32        2S          0.09736  -0.63340   1.16734   0.18835  -0.49094
  33        3PX         0.00048  -0.00238   0.00425  -0.00199  -0.00096
  34        3PY        -0.00118  -0.00265   0.00081  -0.00337  -0.00196
  35        3PZ        -0.00026  -0.00030  -0.00153   0.00107   0.00282
  36 4   H  1S         -0.10925   0.01464   0.01555  -0.04912  -0.03384
  37        2S         -0.27119  -0.61360   0.09171  -0.28920  -1.24908
  38        3PX         0.00278  -0.00292   0.00424  -0.00049   0.00016
  39        3PY         0.00238  -0.00250  -0.00389  -0.00280  -0.00091
  40        3PZ         0.00286   0.00108  -0.00016   0.00050  -0.00053
  41 5   H  1S          0.04987  -0.01319  -0.06942  -0.01011  -0.01673
  42        2S          0.09746  -0.63346  -1.06410  -0.51756  -0.68636
  43        3PX        -0.00110  -0.00299   0.00090  -0.00382   0.00195
  44        3PY         0.00066  -0.00194  -0.00250  -0.00353  -0.00016
  45        3PZ        -0.00026  -0.00030   0.00063   0.00175   0.00122
  46 6   C  1S         -0.00929  -0.07373  -0.00009   0.00005   0.09939
  47        2S          0.01704   0.08281  -0.04255   0.00937  -0.08417
  48        2PX        -0.03122   0.06351   0.09977  -0.10248  -0.05250
  49        2PY         0.01103  -0.02241  -0.08911  -0.20821   0.01941
  50        2PZ        -0.05443   0.01505  -0.00182   0.00058  -0.07924
  51        3S          0.05820   1.19378   0.38334  -0.08529  -1.87291
  52        3PX        -0.02307   0.42406   0.16638  -0.40764  -0.05122
  53        3PY         0.00821  -0.14959  -0.30737  -0.98299   0.07825
  54        3PZ        -0.00059   0.01358   0.11425  -0.02432  -0.33045
  55        4XX         0.00622   0.00014   0.00815   0.00924  -0.00088
  56        4YY         0.00838  -0.00583   0.00042  -0.01113   0.00628
  57        4ZZ        -0.01538  -0.00176  -0.01198   0.00265   0.00749
  58        4XY         0.00101  -0.00278   0.00189   0.01539  -0.00630
  59        4XZ        -0.02469   0.00332  -0.00541  -0.00288   0.00347
  60        4YZ         0.00870  -0.00117  -0.00082  -0.01134   0.00088
  61 7   H  1S          0.04978  -0.01319  -0.00390  -0.07002   0.02201
  62        2S          0.09734  -0.63339  -0.42053  -1.10514   0.67178
  63        3PX         0.00078   0.00348   0.00480   0.00049   0.00216
  64        3PY         0.00101  -0.00073  -0.00168  -0.00282   0.00093
  65        3PZ        -0.00026  -0.00030   0.00169   0.00079  -0.00093
  66 8   H  1S          0.04988  -0.01319   0.02596   0.06518  -0.03524
  67        2S          0.09748  -0.63347   0.08386   1.18028   0.43584
  68        3PX        -0.00002   0.00317   0.00344  -0.00397  -0.00182
  69        3PY        -0.00128  -0.00162  -0.00235  -0.00099   0.00181
  70        3PZ        -0.00026  -0.00030   0.00121  -0.00142  -0.00286
  71 9   H  1S         -0.10924   0.01464  -0.05032   0.01109   0.03180
  72        2S         -0.27118  -0.61360  -0.29628   0.06534   1.17441
  73        3PX        -0.00345   0.00362   0.00169  -0.00241  -0.00010
  74        3PY         0.00122  -0.00128  -0.00196  -0.00535   0.00105
  75        3PZ         0.00286   0.00108   0.00051  -0.00011   0.00050
  76 10  C  1S         -0.00929  -0.07373   0.00009   0.00005   0.00628
  77        2S          0.01704   0.08281   0.02940   0.03217  -0.00535
  78        2PX         0.00606  -0.01235   0.18688  -0.13941   0.00215
  79        2PY        -0.03255   0.06621  -0.05217  -0.12107  -0.00320
  80        2PZ        -0.05442   0.01505   0.00140   0.00127  -0.00508
  81        3S          0.05820   1.19380  -0.26548  -0.28949  -0.11817
  82        3PX         0.00443  -0.08248   0.82224  -0.68605   0.10299
  83        3PY        -0.02408   0.44205  -0.02893  -0.32702   0.01427
  84        3PZ        -0.00059   0.01359  -0.07828  -0.08688  -0.02110
  85        4XX         0.00859  -0.00642   0.00288  -0.00602   0.00440
  86        4YY         0.00601   0.00073  -0.00881  -0.00046  -0.00408
  87        4ZZ        -0.01538  -0.00176   0.00829   0.00905   0.00048
  88        4XY         0.00057  -0.00160  -0.01308   0.01310  -0.01283
  89        4XZ         0.00481  -0.00065   0.00804  -0.00859   0.00354
  90        4YZ        -0.02573   0.00346   0.00489   0.00211   0.00085
  91 11  H  1S          0.04987  -0.01319   0.04347  -0.05507   0.05197
  92        2S          0.09747  -0.63347   0.98017  -0.66283   0.25059
  93        3PX         0.00112  -0.00019   0.00230  -0.00169   0.00177
  94        3PY         0.00062   0.00356  -0.00463  -0.00212   0.00409
  95        3PZ        -0.00026  -0.00030  -0.00183  -0.00033   0.00164
  96 12  H  1S          0.04978  -0.01319  -0.05869   0.03838  -0.05286
  97        2S          0.09736  -0.63340  -0.74687   0.91670  -0.18086
  98        3PX        -0.00126  -0.00111   0.00238  -0.00028   0.00310
  99        3PY         0.00017   0.00338  -0.00091  -0.00524  -0.00322
 100        3PZ        -0.00026  -0.00030  -0.00016  -0.00186  -0.00189
 101 13  H  1S         -0.10924   0.01464   0.03476   0.03803   0.00204
 102        2S         -0.27119  -0.61363   0.20473   0.22411   0.07461
 103        3PX         0.00067  -0.00070   0.00463  -0.00366   0.00173
 104        3PY        -0.00359   0.00378  -0.00071  -0.00241   0.00029
 105        3PZ         0.00286   0.00108  -0.00035  -0.00039   0.00003
     Density Matrix:
                           1         2         3         4         5
   1 1   C  1S          2.05942
   2        2S         -0.08558   0.26728
   3        2PX         0.00863  -0.00961   0.36687
   4        2PY         0.00739  -0.00823  -0.03240   0.37698
   5        2PZ        -0.00210   0.00263   0.00943   0.00808   0.38401
   6        3S         -0.17902   0.27451  -0.06980  -0.05973   0.01451
   7        3PX        -0.00202   0.00170   0.16111  -0.05595   0.01771
   8        3PY        -0.00173   0.00146  -0.05595   0.17859   0.01515
   9        3PZ        -0.00136   0.00172   0.01296   0.01110   0.21425
  10        4XX        -0.00323  -0.00023  -0.00226   0.01568  -0.01019
  11        4YY        -0.00320  -0.00035   0.01014  -0.00890  -0.01207
  12        4ZZ        -0.00388   0.00087  -0.00546  -0.00471   0.02111
  13        4XY        -0.00010   0.00046   0.02003   0.01395   0.00693
  14        4XZ         0.00007  -0.00011  -0.01262   0.00653  -0.00198
  15        4YZ         0.00006  -0.00010   0.00653  -0.01466  -0.00173
  16 2   C  1S          0.01104  -0.02175  -0.05271  -0.04512   0.01031
  17        2S         -0.02098   0.04088   0.11314   0.09686  -0.02915
  18        2PX         0.04674  -0.09323  -0.18286  -0.15947   0.03274
  19        2PY         0.04001  -0.07980  -0.15947  -0.13309   0.02803
  20        2PZ        -0.00237   0.00568   0.01222   0.01046   0.07390
  21        3S          0.00939  -0.00636   0.12439   0.10643   0.00368
  22        3PX         0.00452  -0.01812  -0.08909  -0.09026   0.02828
  23        3PY         0.00387  -0.01551  -0.09026  -0.06091   0.02424
  24        3PZ        -0.00037   0.00135   0.00901   0.00770   0.04457
  25        4XX        -0.00325   0.00447  -0.00426   0.01208  -0.00319
  26        4YY        -0.00142   0.00123   0.00777  -0.00907  -0.00223
  27        4ZZ         0.00127  -0.00279  -0.00392  -0.00335   0.00324
  28        4XY        -0.00675   0.01200   0.01437   0.00946  -0.00353
  29        4XZ         0.00108  -0.00178  -0.00322  -0.00262  -0.00991
  30        4YZ         0.00092  -0.00152  -0.00262  -0.00240  -0.00848
  31 3   H  1S         -0.05397   0.09980  -0.21670   0.09632  -0.10410
  32        2S         -0.00958   0.02562  -0.15244   0.06757  -0.06593
  33        3PX        -0.00464   0.00822  -0.00786   0.00512  -0.00629
  34        3PY         0.00208  -0.00342   0.00372   0.00359   0.00172
  35        3PZ        -0.00244   0.00423  -0.00617   0.00258   0.00242
  36 4   H  1S         -0.05561   0.10191  -0.03720  -0.03199   0.24222
  37        2S         -0.00901   0.02492  -0.02575  -0.02215   0.15995
  38        3PX        -0.00095   0.00188   0.00516  -0.00106   0.00486
  39        3PY        -0.00082   0.00162  -0.00106   0.00548   0.00417
  40        3PZ         0.00561  -0.00957   0.00325   0.00279  -0.01075
  41 5   H  1S         -0.05397   0.09980   0.06166  -0.22889  -0.10428
  42        2S         -0.00958   0.02562   0.04319  -0.16099  -0.06606
  43        3PX         0.00133  -0.00211   0.00467   0.00176   0.00073
  44        3PY        -0.00491   0.00864   0.00316  -0.00893  -0.00649
  45        3PZ        -0.00244   0.00424   0.00160  -0.00650   0.00241
  46 6   C  1S         -0.00347   0.00526   0.01316   0.00053  -0.00077
  47        2S          0.00526  -0.01056  -0.02588  -0.00355   0.00495
  48        2PX        -0.01247   0.02542   0.05324   0.01632  -0.00588
  49        2PY        -0.00425   0.00603   0.00647  -0.00574  -0.00535
  50        2PZ        -0.00076   0.00496   0.00741  -0.00287  -0.02070
  51        3S          0.01102  -0.01541  -0.05784   0.02427  -0.01970
  52        3PX        -0.00945   0.01604   0.04777   0.00285   0.00763
  53        3PY        -0.00597   0.00991   0.01920   0.00483  -0.01142
  54        3PZ         0.00107   0.00093   0.00171  -0.00569  -0.02218
  55        4XX        -0.00050   0.00065   0.00285   0.00194   0.00069
  56        4YY         0.00001  -0.00034  -0.00142  -0.00193   0.00182
  57        4ZZ        -0.00053   0.00076   0.00025   0.00017  -0.00134
  58        4XY        -0.00137   0.00256   0.00602   0.00259  -0.00013
  59        4XZ         0.00037  -0.00068  -0.00143  -0.00039  -0.00236
  60        4YZ         0.00043  -0.00072  -0.00148  -0.00010   0.00033
  61 7   H  1S          0.00461  -0.00858  -0.01800  -0.00211   0.01126
  62        2S          0.00214  -0.00478  -0.01062  -0.00955   0.00558
  63        3PX        -0.00004   0.00031   0.00069   0.00094  -0.00023
  64        3PY         0.00032  -0.00054  -0.00105   0.00027   0.00045
  65        3PZ         0.00005  -0.00010  -0.00026  -0.00005   0.00018
  66 8   H  1S         -0.00634   0.01125   0.02410   0.00946   0.00375
  67        2S         -0.00544   0.01111   0.03213   0.01321   0.00287
  68        3PX        -0.00010   0.00014   0.00037   0.00007  -0.00024
  69        3PY         0.00000  -0.00008  -0.00030  -0.00033   0.00005
  70        3PZ        -0.00011   0.00027   0.00048   0.00017  -0.00029
  71 9   H  1S          0.00010   0.00235   0.00161   0.00005  -0.01625
  72        2S         -0.00187   0.00425   0.00798  -0.00110  -0.01102
  73        3PX        -0.00005   0.00027   0.00080   0.00058  -0.00056
  74        3PY         0.00004   0.00002  -0.00006  -0.00001  -0.00018
  75        3PZ        -0.00013   0.00004   0.00007   0.00007   0.00054
  76 10  C  1S         -0.00347   0.00526   0.00255   0.01292  -0.00076
  77        2S          0.00526  -0.01056  -0.00749  -0.02503   0.00496
  78        2PX        -0.00612   0.00987  -0.00086   0.01491  -0.00620
  79        2PY        -0.01166   0.02418   0.02477   0.04836  -0.00498
  80        2PZ        -0.00077   0.00495  -0.00170   0.00777  -0.02070
  81        3S          0.01101  -0.01541   0.01504  -0.06087  -0.01975
  82        3PX        -0.00735   0.01226   0.00922   0.02520  -0.01008
  83        3PY        -0.00841   0.01431   0.00888   0.04337   0.00933
  84        3PZ         0.00106   0.00093  -0.00537   0.00257  -0.02220
  85        4XX        -0.00037   0.00037  -0.00110   0.00045   0.00175
  86        4YY        -0.00013  -0.00005   0.00133   0.00096   0.00076
  87        4ZZ        -0.00053   0.00075   0.00020   0.00022  -0.00134
  88        4XY        -0.00139   0.00261   0.00411   0.00592  -0.00032
  89        4XZ         0.00048  -0.00082  -0.00041  -0.00164  -0.00003
  90        4YZ         0.00030  -0.00056  -0.00055  -0.00111  -0.00238
  91 11  H  1S          0.00461  -0.00857  -0.00485  -0.01746   0.01128
  92        2S          0.00214  -0.00478  -0.01106  -0.00901   0.00560
  93        3PX         0.00031  -0.00049   0.00026  -0.00098   0.00041
  94        3PY        -0.00009   0.00039   0.00101   0.00070  -0.00030
  95        3PZ         0.00005  -0.00010  -0.00009  -0.00025   0.00018
  96 12  H  1S         -0.00635   0.01125   0.01306   0.02237   0.00373
  97        2S         -0.00545   0.01111   0.01801   0.02972   0.00284
  98        3PX        -0.00002  -0.00006  -0.00035  -0.00019   0.00002
  99        3PY        -0.00009   0.00015   0.00019   0.00039  -0.00025
 100        3PZ        -0.00011   0.00027   0.00024   0.00045  -0.00029
 101 13  H  1S          0.00010   0.00233   0.00029   0.00156  -0.01624
 102        2S         -0.00186   0.00423   0.00014   0.00802  -0.01100
 103        3PX         0.00003   0.00006   0.00009   0.00005  -0.00027
 104        3PY        -0.00006   0.00027   0.00069   0.00070  -0.00053
 105        3PZ        -0.00013   0.00004   0.00008   0.00006   0.00053
                           6         7         8         9        10
   6        3S          0.32138
   7        3PX        -0.01172   0.07955
   8        3PY        -0.01002  -0.04286   0.09294
   9        3PZ         0.00728   0.01305   0.01117   0.12057
  10        4XX        -0.00302  -0.00379   0.00749  -0.00549   0.00115
  11        4YY        -0.00162   0.00511  -0.00634  -0.00672  -0.00020
  12        4ZZ         0.00383  -0.00086  -0.00076   0.01156  -0.00078
  13        4XY        -0.00518   0.00722   0.00423   0.00457   0.00036
  14        4XZ         0.00087  -0.00631   0.00436  -0.00136   0.00037
  15        4YZ         0.00074   0.00436  -0.00768  -0.00119  -0.00059
  16 2   C  1S          0.01176  -0.00819  -0.00700   0.00409  -0.00419
  17        2S         -0.01806   0.02271   0.01944  -0.01371   0.00747
  18        2PX        -0.04281  -0.08057  -0.04108   0.00919  -0.00044
  19        2PY        -0.03666  -0.04107  -0.06776   0.00787  -0.01199
  20        2PZ        -0.00724   0.00200   0.00172   0.03670  -0.00115
  21        3S         -0.07011   0.02620   0.02240   0.00314   0.00677
  22        3PX         0.01299  -0.03603  -0.02406   0.01145  -0.00112
  23        3PY         0.01111  -0.02406  -0.02852   0.00983  -0.00600
  24        3PZ        -0.00710   0.00161   0.00138   0.02217  -0.00062
  25        4XX         0.00350  -0.00421   0.00705  -0.00155   0.00106
  26        4YY         0.00041   0.00480  -0.00654  -0.00115  -0.00066
  27        4ZZ        -0.00082  -0.00076  -0.00065   0.00159  -0.00033
  28        4XY         0.01143   0.00655   0.00369  -0.00146   0.00027
  29        4XZ        -0.00202  -0.00195  -0.00134  -0.00595   0.00029
  30        4YZ        -0.00173  -0.00134  -0.00154  -0.00509   0.00006
  31 3   H  1S          0.12164  -0.10679   0.06789  -0.06087   0.00771
  32        2S          0.03888  -0.07668   0.04758  -0.03888   0.00548
  33        3PX         0.00885  -0.00401   0.00320  -0.00355   0.00041
  34        3PY        -0.00476   0.00118   0.00122   0.00110   0.00009
  35        3PZ         0.00511  -0.00278   0.00203   0.00127   0.00006
  36 4   H  1S          0.12606  -0.00104  -0.00098   0.13393  -0.00783
  37        2S          0.03909  -0.00215  -0.00191   0.08827  -0.00524
  38        3PX         0.00128   0.00252  -0.00089   0.00278  -0.00018
  39        3PY         0.00110  -0.00089   0.00280   0.00239   0.00012
  40        3PZ        -0.01124   0.00050   0.00043  -0.00589   0.00040
  41 5   H  1S          0.12162   0.05056  -0.11595  -0.06097  -0.00707
  42        2S          0.03886   0.03514  -0.08307  -0.03896  -0.00546
  43        3PX        -0.00333   0.00176   0.00028   0.00054   0.00004
  44        3PY         0.00947   0.00229  -0.00455  -0.00369  -0.00020
  45        3PZ         0.00512   0.00158  -0.00306   0.00126  -0.00034
  46 6   C  1S          0.01101   0.01096  -0.00216   0.00106  -0.00123
  47        2S         -0.01541  -0.01853   0.00346   0.00093   0.00201
  48        2PX         0.04519   0.04960  -0.00189   0.00046  -0.00647
  49        2PY         0.04345   0.01442   0.00300  -0.00594   0.00066
  50        2PZ        -0.01975  -0.00304  -0.01340  -0.02220   0.00076
  51        3S         -0.01900  -0.03085   0.01693  -0.01149   0.00225
  52        3PX         0.02267   0.03149  -0.00412   0.00594  -0.00268
  53        3PY         0.02690   0.01478   0.00385  -0.00711   0.00063
  54        3PZ        -0.01152  -0.00300  -0.00876  -0.01815   0.00077
  55        4XX        -0.00006  -0.00010   0.00125   0.00042   0.00051
  56        4YY         0.00081   0.00029  -0.00071   0.00145  -0.00037
  57        4ZZ        -0.00024   0.00026  -0.00066  -0.00125  -0.00010
  58        4XY         0.00377   0.00399   0.00096   0.00036  -0.00022
  59        4XZ        -0.00161  -0.00144  -0.00014  -0.00138   0.00022
  60        4YZ        -0.00254  -0.00142  -0.00017   0.00024   0.00001
  61 7   H  1S         -0.02219  -0.01254   0.00016   0.01005  -0.00081
  62        2S         -0.01246  -0.00567  -0.00517   0.00549  -0.00137
  63        3PX         0.00068   0.00066   0.00028  -0.00013  -0.00005
  64        3PY        -0.00099  -0.00071   0.00033   0.00045   0.00001
  65        3PZ        -0.00089  -0.00035  -0.00015   0.00006  -0.00001
  66 8   H  1S          0.03763   0.02501   0.00721   0.00505  -0.00175
  67        2S          0.02807   0.02475   0.00651   0.00422  -0.00132
  68        3PX        -0.00107  -0.00019  -0.00036  -0.00021   0.00000
  69        3PY        -0.00051  -0.00047  -0.00018  -0.00010   0.00006
  70        3PZ         0.00068   0.00051   0.00001  -0.00024  -0.00003
  71 9   H  1S         -0.01405  -0.00281  -0.00740  -0.01565   0.00039
  72        2S         -0.00559   0.00278  -0.00651  -0.01020  -0.00022
  73        3PX         0.00092   0.00081   0.00025  -0.00006  -0.00008
  74        3PY         0.00049   0.00011   0.00005  -0.00022   0.00002
  75        3PZ         0.00081   0.00020   0.00032   0.00061  -0.00001
  76 10  C  1S          0.01102  -0.00044   0.01116   0.00107   0.00090
  77        2S         -0.01541   0.00057  -0.01885   0.00093  -0.00201
  78        2PX         0.04994   0.00602   0.02126  -0.00578  -0.00009
  79        2PY         0.03796   0.00491   0.04658   0.00137   0.00567
  80        2PZ        -0.01970  -0.01370  -0.00090  -0.02219   0.00163
  81        3S         -0.01900   0.01196  -0.03308  -0.01152  -0.00224
  82        3PX         0.03009   0.00614   0.01875  -0.00609   0.00058
  83        3PY         0.01825  -0.00015   0.02920   0.00697   0.00290
  84        3PZ        -0.01149  -0.00913  -0.00159  -0.01815   0.00093
  85        4XX         0.00179  -0.00020   0.00139   0.00152   0.00013
  86        4YY        -0.00103   0.00076  -0.00128   0.00035  -0.00023
  87        4ZZ        -0.00025  -0.00061   0.00036  -0.00125   0.00015
  88        4XY         0.00344   0.00182   0.00349   0.00016   0.00020
  89        4XZ        -0.00275  -0.00043  -0.00158   0.00003  -0.00003
  90        4YZ        -0.00120  -0.00030  -0.00117  -0.00140  -0.00004
  91 11  H  1S         -0.02220  -0.00177  -0.01243   0.01004  -0.00020
  92        2S         -0.01246  -0.00598  -0.00481   0.00550   0.00046
  93        3PX        -0.00087   0.00028  -0.00065   0.00043  -0.00004
  94        3PY         0.00082   0.00034   0.00072  -0.00020   0.00008
  95        3PZ        -0.00089  -0.00021  -0.00033   0.00006   0.00001
  96 12  H  1S          0.03765   0.01097   0.02361   0.00503   0.00102
  97        2S          0.02809   0.01024   0.02346   0.00420   0.00131
  98        3PX        -0.00067  -0.00031  -0.00045  -0.00013  -0.00003
  99        3PY        -0.00098  -0.00034  -0.00006  -0.00019   0.00007
 100        3PZ         0.00068   0.00009   0.00050  -0.00024   0.00005
 101 13  H  1S         -0.01405  -0.00776  -0.00164  -0.01564   0.00122
 102        2S         -0.00559  -0.00600   0.00374  -0.01018   0.00129
 103        3PX         0.00062   0.00013   0.00022  -0.00023   0.00000
 104        3PY         0.00083   0.00036   0.00074  -0.00003   0.00009
 105        3PZ         0.00081   0.00035   0.00014   0.00061  -0.00005
                          11        12        13        14        15
  11        4YY         0.00103
  12        4ZZ        -0.00072   0.00136
  13        4XY         0.00008  -0.00019   0.00190
  14        4XZ        -0.00042   0.00001  -0.00050   0.00054
  15        4YZ         0.00055   0.00001  -0.00026  -0.00041   0.00067
  16 2   C  1S         -0.00235   0.00251  -0.00681   0.00149   0.00128
  17        2S          0.00377  -0.00636   0.01369  -0.00286  -0.00245
  18        2PX        -0.00766   0.00678  -0.01677   0.00384   0.00262
  19        2PY         0.00505   0.00580  -0.01226   0.00262   0.00302
  20        2PZ        -0.00181   0.00360   0.00242   0.00012   0.00010
  21        3S          0.00277  -0.00500   0.01484  -0.00283  -0.00243
  22        3PX        -0.00397   0.00425  -0.00833   0.00152   0.00165
  23        3PY         0.00164   0.00364  -0.00622   0.00165   0.00100
  24        3PZ        -0.00107   0.00210   0.00163   0.00004   0.00003
  25        4XX        -0.00064  -0.00029   0.00022   0.00032  -0.00056
  26        4YY         0.00093  -0.00016   0.00021  -0.00044   0.00046
  27        4ZZ        -0.00020   0.00034  -0.00046   0.00011   0.00010
  28        4XY         0.00025  -0.00049   0.00114  -0.00032  -0.00012
  29        4XZ         0.00023  -0.00047  -0.00046   0.00018   0.00010
  30        4YZ         0.00038  -0.00040  -0.00036   0.00010   0.00015
  31 3   H  1S         -0.00480  -0.00326  -0.00974   0.00896  -0.00647
  32        2S         -0.00383  -0.00200  -0.00699   0.00634  -0.00456
  33        3PX        -0.00012  -0.00027  -0.00030   0.00035  -0.00029
  34        3PY        -0.00003  -0.00003   0.00037  -0.00007  -0.00008
  35        3PZ        -0.00030   0.00021  -0.00019   0.00023  -0.00020
  36 4   H  1S         -0.00805   0.01484   0.00083  -0.00052  -0.00046
  37        2S         -0.00530   0.00973   0.00023  -0.00027  -0.00024
  38        3PX         0.00000   0.00020   0.00034  -0.00020   0.00010
  39        3PY        -0.00027   0.00017   0.00024   0.00010  -0.00024
  40        3PZ         0.00037  -0.00072   0.00009  -0.00001   0.00000
  41 5   H  1S          0.00997  -0.00324  -0.00706  -0.00501   0.00987
  42        2S          0.00709  -0.00199  -0.00501  -0.00353   0.00698
  43        3PX         0.00007  -0.00007   0.00034  -0.00013   0.00000
  44        3PY         0.00047  -0.00026  -0.00025  -0.00022   0.00040
  45        3PZ         0.00010   0.00021  -0.00012  -0.00016   0.00025
  46 6   C  1S          0.00073  -0.00053   0.00081  -0.00050   0.00026
  47        2S         -0.00170   0.00075  -0.00152   0.00089  -0.00043
  48        2PX         0.00514  -0.00029   0.00276  -0.00188   0.00079
  49        2PY        -0.00117   0.00007   0.00062  -0.00030   0.00036
  50        2PZ         0.00175  -0.00134  -0.00034   0.00207   0.00116
  51        3S         -0.00150  -0.00025  -0.00313   0.00241  -0.00179
  52        3PX         0.00231   0.00000   0.00288  -0.00180   0.00079
  53        3PY        -0.00020  -0.00071   0.00117  -0.00049   0.00019
  54        3PZ         0.00111  -0.00125  -0.00067   0.00120   0.00073
  55        4XX        -0.00028  -0.00009   0.00036  -0.00009  -0.00009
  56        4YY         0.00011   0.00017  -0.00013  -0.00009   0.00003
  57        4ZZ         0.00017  -0.00006  -0.00005   0.00012   0.00006
  58        4XY         0.00017  -0.00006   0.00036  -0.00019   0.00001
  59        4XZ        -0.00002  -0.00013  -0.00011   0.00007  -0.00002
  60        4YZ         0.00000   0.00002  -0.00010   0.00005  -0.00002
  61 7   H  1S          0.00013   0.00084  -0.00118  -0.00007  -0.00046
  62        2S          0.00078   0.00053  -0.00101  -0.00021   0.00008
  63        3PX         0.00006  -0.00002   0.00007   0.00000  -0.00001
  64        3PY        -0.00004   0.00004  -0.00005   0.00000  -0.00004
  65        3PZ         0.00002   0.00001  -0.00003   0.00002   0.00000
  66 8   H  1S          0.00062   0.00038   0.00172  -0.00140  -0.00004
  67        2S          0.00075  -0.00006   0.00230  -0.00136  -0.00002
  68        3PX         0.00006  -0.00004   0.00002   0.00002   0.00002
  69        3PY        -0.00004  -0.00001  -0.00002   0.00003   0.00001
  70        3PZ         0.00004  -0.00001   0.00002   0.00000   0.00001
  71 9   H  1S          0.00138  -0.00085  -0.00050   0.00143   0.00063
  72        2S          0.00132  -0.00066   0.00001   0.00068   0.00060
  73        3PX         0.00007  -0.00004   0.00006  -0.00006  -0.00002
  74        3PY        -0.00002   0.00000   0.00000   0.00002   0.00001
  75        3PZ        -0.00006   0.00002   0.00004  -0.00007  -0.00003
  76 10  C  1S         -0.00140  -0.00053   0.00043   0.00018  -0.00054
  77        2S          0.00232   0.00076  -0.00079  -0.00029   0.00095
  78        2PX        -0.00062   0.00002   0.00099   0.00038  -0.00065
  79        2PY        -0.00691  -0.00030   0.00044   0.00044  -0.00190
  80        2PZ         0.00088  -0.00134  -0.00049   0.00147   0.00187
  81        3S          0.00298  -0.00024  -0.00232  -0.00139   0.00266
  82        3PX        -0.00022  -0.00070   0.00153   0.00019  -0.00080
  83        3PY        -0.00333   0.00010   0.00165   0.00048  -0.00180
  84        3PZ         0.00095  -0.00125  -0.00070   0.00090   0.00108
  85        4XX        -0.00039   0.00015  -0.00012   0.00001  -0.00015
  86        4YY         0.00046  -0.00007   0.00039  -0.00009  -0.00003
  87        4ZZ        -0.00007  -0.00006  -0.00010   0.00008   0.00011
  88        4XY        -0.00016  -0.00011   0.00038  -0.00004  -0.00018
  89        4XZ         0.00008   0.00000  -0.00010  -0.00001   0.00006
  90        4YZ         0.00023  -0.00014  -0.00005  -0.00001   0.00006
  91 11  H  1S         -0.00048   0.00085  -0.00129  -0.00047   0.00000
  92        2S         -0.00105   0.00053  -0.00134   0.00005  -0.00022
  93        3PX         0.00001   0.00003  -0.00004  -0.00005   0.00001
  94        3PY        -0.00007  -0.00003   0.00005  -0.00001   0.00000
  95        3PZ         0.00000   0.00001  -0.00003   0.00000   0.00002
  96 12  H  1S         -0.00214   0.00037   0.00122  -0.00025  -0.00138
  97        2S         -0.00187  -0.00006   0.00182  -0.00023  -0.00134
  98        3PX         0.00006  -0.00001   0.00000   0.00002   0.00003
  99        3PY        -0.00002  -0.00004   0.00000   0.00002   0.00001
 100        3PZ        -0.00004  -0.00001   0.00001   0.00001   0.00000
 101 13  H  1S          0.00055  -0.00085  -0.00066   0.00084   0.00131
 102        2S         -0.00019  -0.00066  -0.00027   0.00069   0.00058
 103        3PX         0.00000  -0.00001   0.00001   0.00001   0.00001
 104        3PY        -0.00009  -0.00004   0.00003  -0.00003  -0.00006
 105        3PZ        -0.00002   0.00002   0.00004  -0.00004  -0.00006
                          16        17        18        19        20
  16 2   C  1S          2.06500
  17        2S         -0.11984   0.36782
  18        2PX         0.00000   0.00000   0.48288
  19        2PY         0.00000   0.00000   0.00000   0.48288
  20        2PZ        -0.00675   0.00891   0.00000   0.00000   0.04997
  21        3S         -0.18390   0.33537   0.00000   0.00000   0.02862
  22        3PX         0.00000   0.00000   0.23099  -0.00001   0.00000
  23        3PY         0.00000   0.00000   0.00001   0.23098   0.00000
  24        3PZ        -0.00627   0.00777   0.00000   0.00000   0.03033
  25        4XX        -0.00635   0.00882   0.01257  -0.02035  -0.00113
  26        4YY        -0.00635   0.00882  -0.01257   0.02035  -0.00113
  27        4ZZ         0.00283  -0.01510   0.00000   0.00000   0.00100
  28        4XY         0.00000   0.00000  -0.02350  -0.01451   0.00000
  29        4XZ         0.00000   0.00000   0.00580   0.00000   0.00000
  30        4YZ         0.00000   0.00000   0.00000   0.00580   0.00000
  31 3   H  1S          0.00802  -0.01809   0.03430   0.01003  -0.02134
  32        2S          0.00892  -0.01858   0.05236   0.01245  -0.01427
  33        3PX        -0.00017   0.00057  -0.00209  -0.00177  -0.00121
  34        3PY        -0.00058   0.00132  -0.00244  -0.00205   0.00051
  35        3PZ         0.00033  -0.00078   0.00091   0.00068   0.00045
  36 4   H  1S          0.00861  -0.02578   0.02384   0.02042   0.04451
  37        2S          0.01049  -0.02417   0.03343   0.02864   0.02875
  38        3PX        -0.00040   0.00099  -0.00266  -0.00238   0.00131
  39        3PY        -0.00034   0.00085  -0.00238  -0.00192   0.00113
  40        3PZ        -0.00054   0.00129  -0.00059  -0.00050  -0.00204
  41 5   H  1S          0.00802  -0.01809   0.01520   0.03234  -0.02137
  42        2S          0.00892  -0.01859   0.02038   0.04981  -0.01429
  43        3PX        -0.00060   0.00140  -0.00269  -0.00235   0.00032
  44        3PY        -0.00008   0.00035  -0.00167  -0.00145  -0.00127
  45        3PZ         0.00033  -0.00078   0.00081   0.00079   0.00045
  46 6   C  1S          0.01104  -0.02098  -0.05801   0.02047  -0.00237
  47        2S         -0.02175   0.04088   0.11572  -0.04083   0.00568
  48        2PX         0.06543  -0.14045  -0.28364   0.10129  -0.01517
  49        2PY        -0.02309   0.04955   0.10128  -0.03231   0.00535
  50        2PZ         0.01031  -0.02915  -0.04065   0.01434   0.07390
  51        3S          0.01176  -0.01806   0.05316  -0.01875  -0.00724
  52        3PX         0.01016  -0.02820  -0.10653   0.02609  -0.00248
  53        3PY        -0.00359   0.00995   0.02608  -0.04179   0.00087
  54        3PZ         0.00409  -0.01371  -0.01141   0.00402   0.03670
  55        4XX        -0.00792   0.01496   0.01649  -0.01176   0.00017
  56        4YY         0.00138  -0.00372  -0.00643   0.00821  -0.00313
  57        4ZZ         0.00251  -0.00636  -0.00841   0.00297   0.00360
  58        4XY         0.00433  -0.00870  -0.01507  -0.00319  -0.00154
  59        4XZ        -0.00185   0.00355   0.00549  -0.00166  -0.00015
  60        4YZ         0.00065  -0.00126  -0.00166   0.00136   0.00006
  61 7   H  1S          0.00802  -0.01809  -0.02583   0.02469  -0.02133
  62        2S          0.00892  -0.01858  -0.03696   0.03912  -0.01427
  63        3PX         0.00059  -0.00143  -0.00388   0.00141   0.00016
  64        3PY         0.00014  -0.00017   0.00073  -0.00026  -0.00130
  65        3PZ         0.00033  -0.00078  -0.00104   0.00045   0.00045
  66 8   H  1S          0.00802  -0.01809  -0.03561  -0.00300  -0.02138
  67        2S          0.00892  -0.01859  -0.05332  -0.00725  -0.01429
  68        3PX         0.00037  -0.00100  -0.00350   0.00121   0.00094
  69        3PY        -0.00048   0.00103   0.00188  -0.00064   0.00092
  70        3PZ         0.00033  -0.00078  -0.00109   0.00030   0.00045
  71 9   H  1S          0.00861  -0.02578  -0.02960   0.01043   0.04451
  72        2S          0.01049  -0.02417  -0.04152   0.01463   0.02875
  73        3PX         0.00049  -0.00123  -0.00417   0.00151  -0.00163
  74        3PY        -0.00017   0.00044   0.00151  -0.00041   0.00057
  75        3PZ        -0.00054   0.00129   0.00073  -0.00026  -0.00204
  76 10  C  1S          0.01104  -0.02098   0.01128  -0.06048  -0.00237
  77        2S         -0.02175   0.04088  -0.02250   0.12064   0.00568
  78        2PX        -0.01272   0.02731  -0.00743   0.05818   0.00295
  79        2PY         0.06821  -0.14641   0.05818  -0.30852  -0.01581
  80        2PZ         0.01031  -0.02915   0.00790  -0.04237   0.07390
  81        3S          0.01176  -0.01806  -0.01034   0.05541  -0.00724
  82        3PX        -0.00197   0.00548  -0.03539   0.01499   0.00049
  83        3PY         0.01059  -0.02939   0.01499  -0.11294  -0.00259
  84        3PZ         0.00409  -0.01371   0.00222  -0.01189   0.03670
  85        4XX         0.00230  -0.00557   0.00529  -0.01081  -0.00346
  86        4YY        -0.00884   0.01682  -0.00724   0.02130   0.00050
  87        4ZZ         0.00251  -0.00636   0.00164  -0.00877   0.00360
  88        4XY         0.00248  -0.00500  -0.00806  -0.00919  -0.00088
  89        4XZ         0.00036  -0.00069   0.00095  -0.00096   0.00002
  90        4YZ        -0.00193   0.00371  -0.00096   0.00590  -0.00016
  91 11  H  1S          0.00802  -0.01809   0.02040  -0.02933  -0.02137
  92        2S          0.00892  -0.01859   0.03294  -0.04256  -0.01429
  93        3PX         0.00023  -0.00039  -0.00002   0.00013  -0.00126
  94        3PY         0.00056  -0.00139   0.00081  -0.00412   0.00036
  95        3PZ         0.00033  -0.00078   0.00028  -0.00110   0.00045
  96 12  H  1S          0.00802  -0.01809  -0.00847  -0.03472  -0.02133
  97        2S          0.00892  -0.01858  -0.01540  -0.05157  -0.01427
  98        3PX        -0.00042   0.00086  -0.00024   0.00137   0.00105
  99        3PY         0.00044  -0.00115   0.00070  -0.00390   0.00079
 100        3PZ         0.00033  -0.00078   0.00013  -0.00112   0.00045
 101 13  H  1S          0.00861  -0.02578   0.00576  -0.03085   0.04451
 102        2S          0.01049  -0.02417   0.00808  -0.04327   0.02875
 103        3PX        -0.00010   0.00024  -0.00004   0.00087   0.00032
 104        3PY         0.00051  -0.00128   0.00087  -0.00454  -0.00170
 105        3PZ        -0.00054   0.00129  -0.00014   0.00076  -0.00204
                          21        22        23        24        25
  21        3S          0.34456
  22        3PX         0.00000   0.11979
  23        3PY         0.00000   0.00000   0.11979
  24        3PZ         0.02097   0.00000   0.00000   0.01850
  25        4XX         0.00641   0.00524  -0.00849  -0.00068   0.00216
  26        4YY         0.00641  -0.00524   0.00849  -0.00068  -0.00155
  27        4ZZ        -0.01238   0.00000   0.00000   0.00055  -0.00043
  28        4XY         0.00000  -0.00980  -0.00605   0.00000   0.00000
  29        4XZ         0.00000   0.00181   0.00000   0.00000   0.00014
  30        4YZ         0.00000   0.00000   0.00181   0.00000  -0.00023
  31 3   H  1S         -0.04808   0.02062   0.01830  -0.01422   0.00826
  32        2S         -0.03111   0.02396   0.01151  -0.00920   0.00564
  33        3PX        -0.00152  -0.00053  -0.00002  -0.00081   0.00043
  34        3PY         0.00224  -0.00164  -0.00137   0.00036   0.00001
  35        3PZ        -0.00143   0.00088   0.00097   0.00022   0.00019
  36 4   H  1S         -0.02557   0.03102   0.02657   0.02575  -0.00100
  37        2S         -0.01675   0.02459   0.02107   0.01692  -0.00144
  38        3PX         0.00127  -0.00097  -0.00104   0.00079  -0.00010
  39        3PY         0.00109  -0.00104  -0.00064   0.00068   0.00017
  40        3PZ         0.00220  -0.00171  -0.00146  -0.00113  -0.00001
  41 5   H  1S         -0.04805   0.02126   0.01753  -0.01424  -0.00586
  42        2S         -0.03109   0.01507   0.02188  -0.00921  -0.00563
  43        3PX         0.00198  -0.00160  -0.00147   0.00023  -0.00004
  44        3PY        -0.00184   0.00014  -0.00029  -0.00085  -0.00011
  45        3PZ        -0.00143   0.00109   0.00072   0.00022  -0.00017
  46 6   C  1S          0.00939  -0.00562   0.00198  -0.00037  -0.00694
  47        2S         -0.00636   0.02249  -0.00793   0.00135   0.01104
  48        2PX        -0.15436  -0.14613   0.05733  -0.01117  -0.01064
  49        2PY         0.05451   0.05733  -0.00388   0.00395   0.01180
  50        2PZ         0.00368  -0.03513   0.01237   0.04457  -0.00512
  51        3S         -0.07010  -0.01612   0.00569  -0.00710   0.00976
  52        3PX        -0.03250  -0.05123   0.01528  -0.00199  -0.00340
  53        3PY         0.01150   0.01528  -0.01332   0.00070   0.00665
  54        3PZ         0.00314  -0.01424   0.00500   0.02217  -0.00235
  55        4XX         0.01489   0.00903  -0.00576   0.00027   0.00134
  56        4YY        -0.00536  -0.00271   0.00353  -0.00196  -0.00064
  57        4ZZ        -0.00500  -0.00527   0.00186   0.00210  -0.00056
  58        4XY        -0.00942  -0.00737  -0.00109  -0.00104  -0.00016
  59        4XZ         0.00352   0.00256  -0.00105  -0.00005   0.00015
  60        4YZ        -0.00124  -0.00105  -0.00004   0.00002  -0.00048
  61 7   H  1S         -0.04808  -0.02616   0.00870  -0.01422  -0.00302
  62        2S         -0.03111  -0.02195   0.01499  -0.00920  -0.00475
  63        3PX        -0.00118  -0.00188   0.00086   0.00009  -0.00010
  64        3PY        -0.00244  -0.00076  -0.00002  -0.00088   0.00014
  65        3PZ        -0.00143  -0.00128   0.00028   0.00022  -0.00010
  66 8   H  1S         -0.04804  -0.02581   0.00965  -0.01424   0.00595
  67        2S         -0.03109  -0.02649   0.00211  -0.00921   0.00241
  68        3PX         0.00061  -0.00120   0.00009   0.00062  -0.00049
  69        3PY         0.00263   0.00171  -0.00070   0.00063  -0.00015
  70        3PZ        -0.00143  -0.00117   0.00059   0.00022   0.00013
  71 9   H  1S         -0.02557  -0.03852   0.01357   0.02575  -0.00120
  72        2S         -0.01675  -0.03054   0.01076   0.01692  -0.00284
  73        3PX        -0.00158  -0.00162   0.00066  -0.00099  -0.00013
  74        3PY         0.00056   0.00066   0.00002   0.00035   0.00017
  75        3PZ         0.00220   0.00212  -0.00075  -0.00113  -0.00007
  76 10  C  1S          0.00939   0.00109  -0.00585  -0.00037   0.00318
  77        2S         -0.00636  -0.00438   0.02345   0.00135  -0.00696
  78        2PX         0.02997   0.01021   0.03293   0.00217  -0.00642
  79        2PY        -0.16093   0.03293  -0.16021  -0.01165   0.01065
  80        2PZ         0.00368   0.00686  -0.03661   0.04457   0.00018
  81        3S         -0.07011   0.00313  -0.01680  -0.00710  -0.00739
  82        3PX         0.00630  -0.00956   0.00878   0.00039  -0.00394
  83        3PY        -0.03389   0.00878  -0.05498  -0.00208   0.00501
  84        3PZ         0.00314   0.00278  -0.01483   0.02217  -0.00016
  85        4XX        -0.00736   0.00231  -0.00479  -0.00218   0.00064
  86        4YY         0.01690  -0.00354   0.01138   0.00049  -0.00072
  87        4ZZ        -0.00500   0.00103  -0.00550   0.00210   0.00018
  88        4XY        -0.00541  -0.00341  -0.00449  -0.00059  -0.00006
  89        4XZ        -0.00068  -0.00030  -0.00060   0.00001   0.00026
  90        4YZ         0.00367  -0.00060   0.00282  -0.00005  -0.00013
  91 11  H  1S         -0.04804   0.00455  -0.02718  -0.01424   0.00329
  92        2S         -0.03109   0.01142  -0.02399  -0.00921   0.00409
  93        3PX        -0.00259  -0.00005  -0.00104  -0.00086   0.00000
  94        3PY        -0.00079   0.00057  -0.00185   0.00022   0.00009
  95        3PZ        -0.00143   0.00008  -0.00131   0.00022   0.00006
  96 12  H  1S         -0.04808   0.00554  -0.02700  -0.01422  -0.00186
  97        2S         -0.03111  -0.00201  -0.02650  -0.00920  -0.00002
  98        3PX         0.00270  -0.00044   0.00159   0.00072   0.00006
  99        3PY         0.00020  -0.00003  -0.00146   0.00052   0.00026
 100        3PZ        -0.00143   0.00040  -0.00125   0.00022  -0.00007
 101 13  H  1S         -0.02557   0.00750  -0.04015   0.02575  -0.00063
 102        2S         -0.01675   0.00595  -0.03183   0.01692   0.00100
 103        3PX         0.00031   0.00018   0.00038   0.00019  -0.00011
 104        3PY        -0.00165   0.00038  -0.00179  -0.00103   0.00021
 105        3PZ         0.00220  -0.00041   0.00221  -0.00113   0.00010
                          26        27        28        29        30
  26        4YY         0.00216
  27        4ZZ        -0.00043   0.00068
  28        4XY         0.00000   0.00000   0.00247
  29        4XZ        -0.00014   0.00000  -0.00027   0.00076
  30        4YZ         0.00023   0.00000  -0.00017   0.00000   0.00076
  31 3   H  1S         -0.00600  -0.00045  -0.00077   0.00338   0.00244
  32        2S         -0.00506   0.00015  -0.00315   0.00274   0.00162
  33        3PX        -0.00020  -0.00010   0.00029   0.00013   0.00011
  34        3PY        -0.00004  -0.00002   0.00007  -0.00007  -0.00007
  35        3PZ        -0.00018   0.00002  -0.00002  -0.00006  -0.00004
  36 4   H  1S         -0.00089   0.00174  -0.00038  -0.00641  -0.00549
  37        2S         -0.00074   0.00162  -0.00256  -0.00389  -0.00333
  38        3PX         0.00009  -0.00001   0.00023  -0.00016  -0.00015
  39        3PY        -0.00017  -0.00001   0.00015  -0.00015  -0.00011
  40        3PZ         0.00002  -0.00006  -0.00011   0.00029   0.00025
  41 5   H  1S          0.00812  -0.00045   0.00177   0.00294   0.00297
  42        2S          0.00621   0.00015  -0.00112   0.00202   0.00246
  43        3PX         0.00004  -0.00003   0.00013  -0.00006  -0.00004
  44        3PY         0.00034  -0.00009   0.00037   0.00014   0.00012
  45        3PZ         0.00019   0.00002   0.00005  -0.00005  -0.00005
  46 6   C  1S          0.00227   0.00127   0.00428  -0.00133   0.00047
  47        2S         -0.00534  -0.00279  -0.00762   0.00221  -0.00078
  48        2PX         0.00628   0.00486   0.01384  -0.00487   0.00166
  49        2PY        -0.01027  -0.00171   0.00664   0.00166  -0.00074
  50        2PZ        -0.00030   0.00324   0.00224   0.01230  -0.00434
  51        3S         -0.00584  -0.00082  -0.00726   0.00251  -0.00089
  52        3PX         0.00267   0.00094   0.00687  -0.00280   0.00085
  53        3PY        -0.00639  -0.00033   0.00538   0.00085  -0.00069
  54        3PZ        -0.00036   0.00159   0.00093   0.00738  -0.00260
  55        4XX        -0.00070  -0.00058  -0.00019   0.00003  -0.00010
  56        4YY         0.00069   0.00005  -0.00014  -0.00067   0.00033
  57        4ZZ         0.00011   0.00034   0.00031   0.00059  -0.00021
  58        4XY        -0.00011   0.00029   0.00111  -0.00039   0.00000
  59        4XZ         0.00001  -0.00014  -0.00038   0.00025  -0.00006
  60        4YZ         0.00042   0.00005  -0.00048  -0.00006   0.00009
  61 7   H  1S          0.00527  -0.00045  -0.00674  -0.00381   0.00171
  62        2S          0.00533   0.00015  -0.00377  -0.00277   0.00156
  63        3PX         0.00002   0.00007   0.00028  -0.00001  -0.00001
  64        3PY         0.00008  -0.00008  -0.00037  -0.00018   0.00007
  65        3PZ         0.00012   0.00002  -0.00018   0.00007  -0.00003
  66 8   H  1S         -0.00370  -0.00045   0.00610  -0.00405   0.00106
  67        2S         -0.00183   0.00015   0.00648  -0.00314   0.00052
  68        3PX         0.00029   0.00010  -0.00002   0.00012  -0.00003
  69        3PY         0.00003   0.00002  -0.00004   0.00015  -0.00005
  70        3PZ        -0.00012   0.00002   0.00016   0.00007  -0.00002
  71 9   H  1S         -0.00069   0.00174   0.00025   0.00795  -0.00280
  72        2S          0.00065   0.00162   0.00163   0.00483  -0.00170
  73        3PX         0.00014   0.00001   0.00022  -0.00025   0.00009
  74        3PY        -0.00018   0.00000   0.00011   0.00009  -0.00002
  75        3PZ         0.00008  -0.00006   0.00007  -0.00036   0.00013
  76 10  C  1S         -0.00785   0.00127   0.00246   0.00026  -0.00139
  77        2S          0.01266  -0.00279  -0.00438  -0.00043   0.00230
  78        2PX         0.00727  -0.00095   0.01166  -0.00033   0.00096
  79        2PY        -0.01519   0.00507   0.00851   0.00096  -0.00528
  80        2PZ        -0.00560   0.00324   0.00129  -0.00239   0.01282
  81        3S          0.01130  -0.00082  -0.00417  -0.00049   0.00262
  82        3PX         0.00408  -0.00018   0.00818  -0.00048   0.00049
  83        3PY        -0.00577   0.00098   0.00426   0.00049  -0.00301
  84        3PZ        -0.00254   0.00159   0.00053  -0.00144   0.00770
  85        4XX        -0.00064   0.00011  -0.00008   0.00020  -0.00079
  86        4YY         0.00141  -0.00065  -0.00011  -0.00008   0.00013
  87        4ZZ        -0.00062   0.00034   0.00018  -0.00011   0.00061
  88        4XY        -0.00009   0.00017   0.00110  -0.00011  -0.00024
  89        4XZ        -0.00029   0.00003  -0.00066   0.00008  -0.00004
  90        4YZ         0.00029  -0.00015  -0.00024  -0.00004   0.00026
  91 11  H  1S         -0.00104  -0.00045  -0.00788   0.00111  -0.00403
  92        2S         -0.00351   0.00015  -0.00536   0.00112  -0.00298
  93        3PX         0.00020  -0.00006  -0.00030   0.00004  -0.00019
  94        3PY        -0.00021   0.00008   0.00030  -0.00001   0.00002
  95        3PZ        -0.00005   0.00002  -0.00021  -0.00002   0.00007
  96 12  H  1S          0.00411  -0.00045   0.00752   0.00042  -0.00415
  97        2S          0.00060   0.00015   0.00692   0.00003  -0.00318
  98        3PX        -0.00020   0.00003  -0.00009  -0.00003   0.00017
  99        3PY        -0.00044   0.00009  -0.00015  -0.00001   0.00009
 100        3PZ         0.00009   0.00002   0.00020  -0.00001   0.00007
 101 13  H  1S         -0.00126   0.00174   0.00014  -0.00155   0.00829
 102        2S         -0.00319   0.00162   0.00093  -0.00094   0.00504
 103        3PX         0.00011   0.00000   0.00019   0.00000   0.00005
 104        3PY        -0.00020   0.00001   0.00014   0.00005  -0.00027
 105        3PZ        -0.00009  -0.00006   0.00004   0.00007  -0.00038
                          31        32        33        34        35
  31 3   H  1S          0.20612
  32        2S          0.12725   0.08534
  33        3PX         0.01016   0.00565   0.00057
  34        3PY        -0.00297  -0.00151  -0.00016   0.00013
  35        3PZ         0.00490   0.00281   0.00024  -0.00008   0.00020
  36 4   H  1S         -0.01338  -0.02135  -0.00053  -0.00098   0.00356
  37        2S         -0.02390  -0.01743  -0.00166  -0.00014   0.00171
  38        3PX        -0.00369  -0.00283  -0.00013   0.00004  -0.00003
  39        3PY         0.00129   0.00069   0.00007   0.00004   0.00010
  40        3PZ        -0.00184   0.00007  -0.00015   0.00014  -0.00025
  41 5   H  1S         -0.02144  -0.03372   0.00064  -0.00330  -0.00142
  42        2S         -0.03372  -0.02954  -0.00105  -0.00174  -0.00164
  43        3PX        -0.00316  -0.00189  -0.00014   0.00010  -0.00009
  44        3PY         0.00114  -0.00077   0.00020  -0.00019  -0.00001
  45        3PZ        -0.00142  -0.00164  -0.00002  -0.00009   0.00002
  46 6   C  1S         -0.00635  -0.00545   0.00009   0.00003  -0.00011
  47        2S          0.01125   0.01111  -0.00010  -0.00013   0.00027
  48        2PX        -0.02590  -0.03475   0.00020   0.00051  -0.00051
  49        2PY         0.00013   0.00073   0.00013  -0.00016  -0.00002
  50        2PZ         0.00373   0.00284   0.00020   0.00014  -0.00029
  51        3S          0.03765   0.02809   0.00119  -0.00009   0.00068
  52        3PX        -0.02594  -0.02544  -0.00047   0.00036  -0.00048
  53        3PY        -0.00230  -0.00287   0.00025   0.00009  -0.00017
  54        3PZ         0.00503   0.00420   0.00023  -0.00002  -0.00024
  55        4XX        -0.00044   0.00029  -0.00003   0.00003  -0.00001
  56        4YY        -0.00068  -0.00086  -0.00004  -0.00003   0.00002
  57        4ZZ         0.00037  -0.00006   0.00004   0.00001  -0.00001
  58        4XY        -0.00219  -0.00250   0.00001   0.00007  -0.00005
  59        4XZ         0.00132   0.00128   0.00004  -0.00002   0.00000
  60        4YZ         0.00047   0.00047  -0.00001   0.00000   0.00001
  61 7   H  1S          0.00211   0.00098  -0.00019  -0.00006   0.00020
  62        2S         -0.00118  -0.00192  -0.00019  -0.00014   0.00006
  63        3PX        -0.00014  -0.00031   0.00001   0.00001   0.00000
  64        3PY         0.00031   0.00023   0.00000   0.00000   0.00001
  65        3PZ         0.00004   0.00001  -0.00001   0.00000   0.00000
  66 8   H  1S         -0.01134  -0.01415   0.00001   0.00020  -0.00013
  67        2S         -0.01415  -0.01506  -0.00008   0.00033  -0.00025
  68        3PX        -0.00008  -0.00005   0.00000   0.00001  -0.00001
  69        3PY         0.00018   0.00033   0.00000  -0.00001   0.00000
  70        3PZ        -0.00013  -0.00025   0.00001   0.00000  -0.00001
  71 9   H  1S          0.00443   0.00198   0.00020   0.00010  -0.00017
  72        2S         -0.00067  -0.00205   0.00010   0.00009  -0.00019
  73        3PX        -0.00026  -0.00043   0.00001   0.00001  -0.00001
  74        3PY         0.00011   0.00010   0.00000   0.00000   0.00000
  75        3PZ        -0.00016  -0.00004   0.00000  -0.00001   0.00001
  76 10  C  1S          0.00461   0.00214   0.00029  -0.00012   0.00005
  77        2S         -0.00858  -0.00478  -0.00063   0.00000  -0.00010
  78        2PX         0.00718  -0.00296   0.00042  -0.00079   0.00008
  79        2PY         0.01664   0.01397   0.00121   0.00054   0.00025
[...]
  87        4ZZ         0.00000  -0.00001   0.00000   0.00000   0.00000
  88        4XY         0.00000  -0.00001   0.00000   0.00000   0.00000
  89        4XZ         0.00000   0.00000   0.00000   0.00000   0.00000
  90        4YZ         0.00000   0.00001   0.00000   0.00000   0.00000
  91 11  H  1S          0.00000   0.00000   0.00000   0.00000   0.00000
  92        2S          0.00000  -0.00003   0.00000   0.00000   0.00000
  93        3PX         0.00000   0.00000   0.00000   0.00000   0.00000
  94        3PY         0.00000   0.00000   0.00000   0.00000   0.00000
  95        3PZ         0.00000   0.00000   0.00000   0.00000   0.00000
  96 12  H  1S          0.00000   0.00005   0.00000   0.00000   0.00000
  97        2S          0.00003   0.00029   0.00000   0.00000   0.00000
  98        3PX         0.00000   0.00000   0.00000   0.00000   0.00000
  99        3PY         0.00000   0.00000   0.00000   0.00000   0.00000
 100        3PZ         0.00000   0.00000   0.00000   0.00000   0.00000
 101 13  H  1S          0.00000  -0.00010   0.00000   0.00000   0.00000
 102        2S         -0.00010  -0.00057   0.00000   0.00000   0.00000
 103        3PX         0.00000   0.00000   0.00000   0.00000   0.00000
 104        3PY         0.00000   0.00000   0.00000   0.00000   0.00000
 105        3PZ         0.00000   0.00000   0.00000   0.00000   0.00000
                          76        77        78        79        80
  76 10  C  1S          2.05976
  77        2S         -0.01877   0.26827
  78        2PX         0.00000   0.00000   0.40704
  79        2PY         0.00000   0.00000   0.00000   0.34547
  80        2PZ         0.00000   0.00000   0.00000   0.00000   0.38457
  81        3S         -0.03287   0.21961   0.00000   0.00000   0.00000
  82        3PX         0.00000   0.00000   0.13038   0.00000   0.00000
  83        3PY         0.00000   0.00000   0.00000   0.06061   0.00000
  84        3PZ         0.00000   0.00000   0.00000   0.00000   0.12054
  85        4XX        -0.00030   0.00048   0.00000   0.00000   0.00000
  86        4YY        -0.00026   0.00015   0.00000   0.00000   0.00000
  87        4ZZ        -0.00026  -0.00065   0.00000   0.00000   0.00000
  88        4XY         0.00000   0.00000   0.00000   0.00000   0.00000
  89        4XZ         0.00000   0.00000   0.00000   0.00000   0.00000
  90        4YZ         0.00000   0.00000   0.00000   0.00000   0.00000
  91 11  H  1S         -0.00193   0.02946   0.06037   0.02133   0.01533
  92        2S         -0.00103   0.01391   0.02775   0.01032   0.00708
  93        3PX        -0.00017   0.00185   0.00083   0.00121   0.00079
  94        3PY        -0.00006   0.00070   0.00147   0.00002   0.00043
  95        3PZ        -0.00004   0.00045   0.00087   0.00035   0.00023
  96 12  H  1S         -0.00193   0.02946   0.07284   0.00898   0.01523
  97        2S         -0.00103   0.01391   0.03367   0.00446   0.00703
  98        3PX        -0.00021   0.00225   0.00175   0.00065   0.00100
  99        3PY        -0.00003   0.00030   0.00084   0.00030   0.00021
 100        3PZ        -0.00004   0.00045   0.00106   0.00016   0.00023
 101 13  H  1S         -0.00166   0.02481   0.00004   0.00478   0.08695
 102        2S         -0.00047   0.00763   0.00002   0.00269   0.04387
 103        3PX         0.00000   0.00000   0.00093   0.00000   0.00001
 104        3PY        -0.00001   0.00015   0.00000   0.00060   0.00074
 105        3PZ        -0.00024   0.00265   0.00000   0.00049   0.00348
                          81        82        83        84        85
  81        3S          0.31381
  82        3PX         0.00000   0.13255
  83        3PY         0.00000   0.00000   0.03649
  84        3PZ         0.00000   0.00000   0.00000   0.11766
  85        4XX         0.00258   0.00000   0.00000   0.00000   0.00162
  86        4YY        -0.00493   0.00000   0.00000   0.00000  -0.00033
  87        4ZZ         0.00170   0.00000   0.00000   0.00000  -0.00024
  88        4XY         0.00000   0.00000   0.00000   0.00000   0.00000
  89        4XZ         0.00000   0.00000   0.00000   0.00000   0.00000
  90        4YZ         0.00000   0.00000   0.00000   0.00000   0.00000
  91 11  H  1S          0.04878   0.04837   0.01086   0.01149   0.00258
  92        2S          0.03090   0.03575   0.00863   0.00850   0.00211
  93        3PX         0.00128  -0.00016   0.00019   0.00020   0.00007
  94        3PY         0.00037   0.00040  -0.00002   0.00011   0.00003
  95        3PZ         0.00033   0.00025   0.00005   0.00028  -0.00001
  96 12  H  1S          0.04879   0.05614   0.00317   0.01140   0.00402
  97        2S          0.03091   0.04171   0.00273   0.00844   0.00298
  98        3PX         0.00152  -0.00008   0.00008   0.00026   0.00013
  99        3PY         0.00014   0.00023   0.00018   0.00006   0.00002
 100        3PZ         0.00033   0.00028   0.00001   0.00028   0.00001
 101 13  H  1S          0.04463   0.00001   0.00079   0.06781  -0.00104
 102        2S          0.02461   0.00001   0.00096   0.05319  -0.00209
 103        3PX         0.00000   0.00071   0.00000   0.00000   0.00000
 104        3PY         0.00005   0.00000   0.00034   0.00020  -0.00001
 105        3PZ         0.00186   0.00000   0.00004   0.00023  -0.00003
                          86        87        88        89        90
  86        4YY         0.00238
  87        4ZZ        -0.00035   0.00167
  88        4XY         0.00000   0.00000   0.00084
  89        4XZ         0.00000   0.00000   0.00000   0.00083
  90        4YZ         0.00000   0.00000   0.00000   0.00000   0.00007
  91 11  H  1S         -0.00085  -0.00070   0.00222   0.00177   0.00027
  92        2S         -0.00117  -0.00091   0.00035   0.00027   0.00004
  93        3PX        -0.00007  -0.00003   0.00006   0.00004   0.00002
  94        3PY        -0.00001  -0.00003  -0.00001   0.00006   0.00000
  95        3PZ        -0.00003  -0.00001   0.00004  -0.00002   0.00000
  96 12  H  1S         -0.00110  -0.00071   0.00105   0.00200   0.00003
  97        2S         -0.00184  -0.00092   0.00017   0.00031   0.00000
  98        3PX        -0.00006  -0.00004   0.00003   0.00007   0.00001
  99        3PY        -0.00001  -0.00002  -0.00004   0.00003   0.00000
 100        3PZ        -0.00002  -0.00001   0.00002  -0.00003   0.00000
 101 13  H  1S         -0.00108   0.00708   0.00000   0.00000   0.00004
 102        2S         -0.00220   0.00490   0.00000   0.00000   0.00001
 103        3PX         0.00000   0.00000   0.00001  -0.00008   0.00000
 104        3PY        -0.00001   0.00005   0.00000   0.00000  -0.00001
 105        3PZ        -0.00007   0.00029   0.00000   0.00000   0.00000
                          91        92        93        94        95
  91 11  H  1S          0.20765
  92        2S          0.08004   0.07672
  93        3PX         0.00000   0.00000   0.00045
  94        3PY         0.00000   0.00000   0.00000   0.00028
  95        3PZ         0.00000   0.00000   0.00000   0.00000   0.00019
  96 12  H  1S         -0.00041  -0.00428   0.00005   0.00000   0.00000
  97        2S         -0.00428  -0.00892   0.00007  -0.00002   0.00000
  98        3PX         0.00005   0.00004   0.00001   0.00000   0.00000
  99        3PY         0.00000   0.00002   0.00000   0.00000   0.00000
 100        3PZ         0.00000   0.00000   0.00000   0.00000   0.00000
 101 13  H  1S         -0.00025  -0.00337   0.00001   0.00000   0.00008
 102        2S         -0.00392  -0.00765  -0.00004  -0.00003   0.00018
 103        3PX         0.00004   0.00010   0.00000   0.00000   0.00000
 104        3PY         0.00001   0.00003   0.00000   0.00000   0.00000
 105        3PZ         0.00004   0.00000   0.00000   0.00000   0.00000
                          96        97        98        99       100
  96 12  H  1S          0.20767
  97        2S          0.08005   0.07673
  98        3PX         0.00000   0.00000   0.00055
  99        3PY         0.00000   0.00000   0.00000   0.00018
 100        3PZ         0.00000   0.00000   0.00000   0.00000   0.00019
 101 13  H  1S         -0.00025  -0.00337   0.00001   0.00000   0.00008
 102        2S         -0.00393  -0.00765  -0.00006  -0.00001   0.00018
 103        3PX         0.00004   0.00012   0.00000   0.00000   0.00000
 104        3PY         0.00000   0.00001   0.00000   0.00000   0.00000
 105        3PZ         0.00004   0.00000   0.00000   0.00000   0.00000
                         101       102       103       104       105
 101 13  H  1S          0.19999
 102        2S          0.08071   0.08262
 103        3PX         0.00000   0.00000   0.00010
 104        3PY         0.00000   0.00000   0.00000   0.00021
 105        3PZ         0.00000   0.00000   0.00000   0.00000   0.00068
     Gross orbital populations:
                           1
   1 1   C  1S          1.99670
   2        2S          0.63862
   3        2PX         0.66635
   4        2PY         0.72426
   5        2PZ         0.70533
   6        3S          0.66651
   7        3PX         0.20487
   8        3PY         0.36951
   9        3PZ         0.41172
  10        4XX         0.00903
  11        4YY         0.00610
  12        4ZZ         0.00581
  13        4XY         0.01078
  14        4XZ         0.00149
  15        4YZ         0.00455
  16 2   C  1S          1.99720
  17        2S          0.74923
  18        2PX         0.81850
  19        2PY         0.81850
  20        2PZ         0.13134
  21        3S          0.54708
  22        3PX         0.24306
  23        3PY         0.24306
  24        3PZ         0.14219
  25        4XX         0.02408
  26        4YY         0.02408
  27        4ZZ        -0.02216
  28        4XY         0.01811
  29        4XZ         0.00696
  30        4YZ         0.00696
  31 3   H  1S          0.51818
  32        2S          0.25032
  33        3PX         0.00628
  34        3PY         0.00418
  35        3PZ         0.00313
  36 4   H  1S          0.49932
  37        2S          0.25144
  38        3PX         0.00272
  39        3PY         0.00214
  40        3PZ         0.00922
  41 5   H  1S          0.51815
  42        2S          0.25030
  43        3PX         0.00155
  44        3PY         0.00890
  45        3PZ         0.00314
  46 6   C  1S          1.99670
  47        2S          0.63862
  48        2PX         0.68129
  49        2PY         0.70933
  50        2PZ         0.70533
  51        3S          0.66651
  52        3PX         0.24736
  53        3PY         0.32702
  54        3PZ         0.41172
  55        4XX         0.00716
  56        4YY         0.00576
  57        4ZZ         0.00581
  58        4XY         0.01299
  59        4XZ         0.00229
  60        4YZ         0.00375
  61 7   H  1S          0.51818
  62        2S          0.25032
  63        3PX         0.00161
  64        3PY         0.00885
  65        3PZ         0.00313
  66 8   H  1S          0.51815
  67        2S          0.25030
  68        3PX         0.00757
  69        3PY         0.00288
  70        3PZ         0.00314
  71 9   H  1S          0.49932
  72        2S          0.25144
  73        3PX         0.00257
  74        3PY         0.00228
  75        3PZ         0.00922
  76 10  C  1S          1.99670
  77        2S          0.63862
  78        2PX         0.73829
  79        2PY         0.65233
  80        2PZ         0.70533
  81        3S          0.66651
  82        3PX         0.40934
  83        3PY         0.16504
  84        3PZ         0.41172
  85        4XX         0.00715
  86        4YY         0.01148
  87        4ZZ         0.00581
  88        4XY         0.00728
  89        4XZ         0.00528
  90        4YZ         0.00076
  91 11  H  1S          0.51815
  92        2S          0.25030
  93        3PX         0.00655
  94        3PY         0.00390
  95        3PZ         0.00314
  96 12  H  1S          0.51818
  97        2S          0.25032
  98        3PX         0.00780
  99        3PY         0.00266
 100        3PZ         0.00313
 101 13  H  1S          0.49932
 102        2S          0.25144
 103        3PX         0.00199
 104        3PY         0.00286
 105        3PZ         0.00922
          Condensed to atoms (all electrons):
               1          2          3          4          5          6
     1  C    5.027247   0.315582   0.404192   0.378643   0.404150  -0.052041
     2  C    0.315582   5.091556  -0.035390  -0.025950  -0.035361   0.315582
     3  H    0.404192  -0.035390   0.445406  -0.014783  -0.017673   0.002756
     4  H    0.378643  -0.025950  -0.014783   0.445012  -0.014776  -0.001240
     5  H    0.404150  -0.035361  -0.017673  -0.014776   0.445364  -0.003570
     6  C   -0.052041   0.315582   0.002756  -0.001240  -0.003570   5.027248
     7  H   -0.003564  -0.035390  -0.000026   0.000371   0.000945   0.404194
     8  H    0.002754  -0.035360  -0.000085  -0.000027  -0.000027   0.404148
     9  H   -0.001235  -0.025950  -0.000027  -0.000762   0.000371   0.378643
    10  C   -0.052043   0.315581  -0.003565  -0.001236   0.002755  -0.052043
    11  H   -0.003570  -0.035361   0.000944   0.000371  -0.000027   0.002755
    12  H    0.002756  -0.035390  -0.000026  -0.000027  -0.000085  -0.003564
    13  H   -0.001240  -0.025949   0.000371  -0.000763  -0.000027  -0.001235
               7          8          9         10         11         12
     1  C   -0.003564   0.002754  -0.001235  -0.052043  -0.003570   0.002756
     2  C   -0.035390  -0.035360  -0.025950   0.315581  -0.035361  -0.035390
     3  H   -0.000026  -0.000085  -0.000027  -0.003565   0.000944  -0.000026
     4  H    0.000371  -0.000027  -0.000762  -0.001236   0.000371  -0.000027
     5  H    0.000945  -0.000027   0.000371   0.002755  -0.000027  -0.000085
     6  C    0.404194   0.404148   0.378643  -0.052043   0.002755  -0.003564
     7  H    0.445408  -0.017673  -0.014783   0.002756  -0.000085  -0.000026
     8  H   -0.017673   0.445363  -0.014776  -0.003570  -0.000027   0.000944
     9  H   -0.014783  -0.014776   0.445012  -0.001240  -0.000027   0.000371
    10  C    0.002756  -0.003570  -0.001240   5.027251   0.404150   0.404192
    11  H   -0.000085  -0.000027  -0.000027   0.404150   0.445364  -0.017674
    12  H   -0.000026   0.000944   0.000371   0.404192  -0.017674   0.445407
    13  H   -0.000027   0.000371  -0.000763   0.378643  -0.014776  -0.014783
              13
     1  C   -0.001240
     2  C   -0.025949
     3  H    0.000371
     4  H   -0.000763
     5  H   -0.000027
     6  C   -0.001235
     7  H   -0.000027
     8  H    0.000371
     9  H   -0.000763
    10  C    0.378643
    11  H   -0.014776
    12  H   -0.014783
    13  H    0.445013
 Mulliken charges:
               1
     1  C   -0.421632
     2  C    0.251799
     3  H    0.217905
     4  H    0.235166
     5  H    0.217961
     6  C   -0.421632
     7  H    0.217903
     8  H    0.217964
     9  H    0.235166
    10  C   -0.421631
    11  H    0.217962
    12  H    0.217904
    13  H    0.235166
 Sum of Mulliken charges =   1.00000
 Mulliken charges with hydrogens summed into heavy atoms:
               1
     1  C    0.249401
     2  C    0.251799
     6  C    0.249401
    10  C    0.249400
 Electronic spatial extent (au):  <R**2>=            326.4694
 Charge=              1.0000 electrons
 Dipole moment (field-independent basis, Debye):
    X=              0.0000    Y=              0.0000    Z=              0.4535  Tot=              0.4535
 Quadrupole moment (field-independent basis, Debye-Ang):
   XX=            -18.4409   YY=            -18.4411   ZZ=            -22.8499
   XY=              0.0000   XZ=              0.0000   YZ=              0.0000
 Traceless Quadrupole moment (field-independent basis, Debye-Ang):
   XX=              1.4697   YY=              1.4695   ZZ=             -2.9393
   XY=              0.0000   XZ=              0.0000   YZ=              0.0000
 Octapole moment (field-independent basis, Debye-Ang**2):
  XXX=             -0.6102  YYY=              2.0041  ZZZ=              3.7261  XYY=              0.6101
  XXY=             -2.0042  XXZ=             -0.8870  XZZ=              0.0001  YZZ=              0.0002
  YYZ=             -0.8870  XYZ=              0.0000
 Hexadecapole moment (field-independent basis, Debye-Ang**3):
 XXXX=           -167.5325 YYYY=           -167.5314 ZZZZ=            -37.9438 XXXY=             -0.0001
 XXXZ=             -1.0869 YYYX=              0.0001 YYYZ=              3.5414 ZZZX=              0.0000
 ZZZY=              0.0001 XXYY=            -55.8442 XXZZ=            -34.8211 YYZZ=            -34.8220
 XXYZ=             -3.5416 YYXZ=              1.0869 ZZXY=              0.0000
 N-N= 1.270015069675D+02 E-N=-6.095782054519D+02  KE= 1.563761377598D+02
 Orbital energies and kinetic energies (alpha):
                                 1                 2
  12         O                -0.761306          1.025349
  13         O                -0.761305          1.025355
  14         O                -0.745956          1.097597
  15         O                -0.731747          1.248581
  16         O                -0.731746          1.248584
  17         V                -0.159718          1.144460
  18         V                 0.027477          0.780419
  19         V                 0.091170          0.795990
  20         V                 0.091170          0.795990
  21         V                 0.105676          0.813742
 Total kinetic energy from orbitals= 1.563761377598D+02
 B after Tr=     0.002309   -0.004060    0.000580
         Rot=    1.000000    0.000005   -0.000009    0.000001 Ang=   0.00 deg.
 Final structure in terms of initial Z-matrix:
 C
 C,1,B1
 H,1,B2,2,A2
 H,1,B3,2,A3,3,D3,0
 H,1,B4,2,A4,3,D4,0
 C,2,B5,1,A5,3,D5,0
 H,6,B6,2,A6,1,D6,0
 H,6,B7,2,A7,1,D7,0
 H,6,B8,2,A8,1,D8,0
 C,2,B9,1,A9,3,D9,0
 H,10,B10,2,A10,1,D10,0
 H,10,B11,2,A11,1,D11,0
 H,10,B12,2,A12,1,D12,0
      Variables:
 B1=1.4740249
 B2=1.08101299
 A2=112.66929432
 B3=1.09550933
 A3=104.75428541
 D3=-116.25686734
 B4=1.08102481
 A4=112.66207037
 D4=127.49932636
 B5=1.4740251
 A5=119.87708286
 D5=-157.28812622
 B6=1.08101199
 A6=112.66970904
 D6=29.69124522
 B7=1.08102584
 A7=112.6616317
 D7=157.19052522
 B8=1.09550923
 A8=104.75432198
 D8=-86.56652418
 B9=1.47402612
 A9=119.8768041
 D9=29.6965176
 B10=1.08102519
 A10=112.66188882
 D10=-29.79067233
 B11=1.08101269
 A11=112.66940095
 D11=-157.28980712
 B12=1.09550883
 A12=104.75444351
 D12=86.45293369
 1\1\GINC-COMPUTE-1-28\FOpt\RHF\6-31G(d,p)\C4H9(1+)\SGN228\22-Apr-2015\
 0\\#n RHF/6-31G(d,p) pop=Reg Opt formcheck\\2bint1\\1,1\C,0.0139637138
 ,-0.0236955942,0.0125076706\C,-0.051530333,0.0882075049,1.4808188247\H
 ,1.0265544925,0.0175252697,-0.3637234424\H,-0.507015068,0.8656883249,-
 0.3585961619\H,-0.5174758507,-0.8866897413,-0.3635611175\C,-1.22468255
 23,-0.4328892799,2.205333843\H,-1.6861587729,-1.2713402499,1.702714118
 4\H,-1.0091442042,-0.6567134508,3.2407385102\H,-1.9474702785,0.3902779
 362,2.1946520033\C,0.9781012086,0.8547041208,2.2054531062\H,1.93555379
 21,0.8439168593,1.7036726368\H,1.066205201,0.5583042059,3.241297304\H,
 0.6165152436,1.8887446261,2.1929865372\\Version=ES64L-G09RevD.01\State
 =1-A\HF=-156.4565501\RMSD=8.073e-09\RMSF=1.344e-05\Dipole=-0.0893538,0
 .1528837,-0.0219412\Quadrupole=0.2704922,-1.3135717,1.0430795,1.406445
 9,-0.2019724,0.3454325\PG=C01 [X(C4H9)]\\@


 KNIGHT- SIRE, I'VE JUST RETURNED FROM THE FRONT
 KING-   HOW GOES THE BATTLE                    
 KNIGHT- THE SITUATION IS QUITE FLUID           
 KING-   WHAT DOES *THAT* MEAN                  
 KNIGHT- WE'RE UP THE CREEK                     
                THE WIZARD OF ID                
 FChkPn:  Coordinates translated and rotated.
 FChkPn:  Coordinates match /B/ after translation and rotation.
 Job cpu time:       0 days  0 hours  0 minutes 15.1 seconds.
 File lengths (MBytes):  RWF=     10 Int=      0 D2E=      0 Chk=      2 Scr=      1
 Normal termination of Gaussian 09 at Wed Apr 22 23:11:31 2015.
