 Entering Gaussian System, Link 0=g09
 Input=04_24_Homework42c_Interm2.com.tmp
 Output=04_24_Homework42c_Interm2.com.log
 Initial command:
 /share/apps/NYUAD/gaussian/09.D.01/l1.exe "/home/sgn228/homework/4/2cint2/Gau-6829.inp" -scrdir="/home/sgn228/homework/4/2cint2/"
 Entering Link 1 = /share/apps/NYUAD/gaussian/09.D.01/l1.exe PID=      6830.
  
 Copyright (c) 1988,1990,1992,1993,1995,1998,2003,2009,2013,
            Gaussian, Inc.  All Rights Reserved.
  
 This is part of the Gaussian(R) 09 program.  It is based on
 the Gaussian(R) 03 system (copyright 2003, Gaussian, Inc.),
 the Gaussian(R) 98 system (copyright 1998, Gaussian, Inc.),
 the Gaussian(R) 94 system (copyright 1995, Gaussian, Inc.),
 the Gaussian 92(TM) system (copyright 1992, Gaussian, Inc.),
 the Gaussian 90(TM) system (copyright 1990, Gaussian, Inc.),
 the Gaussian 88(TM) system (copyright 1988, Gaussian, Inc.),
 the Gaussian 86(TM) system (copyright 1986, Carnegie Mellon
 University), and the Gaussian 82(TM) system (copyright 1983,
 Carnegie Mellon University). Gaussian is a federally registered
 trademark of Gaussian, Inc.
  
 This software contains proprietary and confidential information,
 including trade secrets, belonging to Gaussian, Inc.
  
 This software is provided under written license and may be
 used, copied, transmitted, or stored only in accord with that
 written license.
  
 The following legend is applicable only to US Government
 contracts under FAR:
  
                    RESTRICTED RIGHTS LEGEND
  
 Use, reproduction and disclosure by the US Government is
 subject to restrictions as set forth in subparagraphs (a)
 and (c) of the Commercial Computer Software - Restricted
 Rights clause in FAR 52.227-19.
  
 Gaussian, Inc.
 340 Quinnipiac St., Bldg. 40, Wallingford CT 06492
  
  
 ---------------------------------------------------------------
 Warning -- This program may not be used in any manner that
 competes with the business of Gaussian, Inc. or will provide
 assistance to any competitor of Gaussian, Inc.  The licensee
 of this program is prohibited from giving any competitor of
 Gaussian, Inc. access to this program.  By using this program,
 the user acknowledges that Gaussian, Inc. is engaged in the
 business of creating and licensing software in the field of
 computational chemistry and represents and warrants to the
 licensee that it is not a competitor of Gaussian, Inc. and that
 it will not use this program in any manner prohibited above.
 ---------------------------------------------------------------
  

 Cite this work as:
 Gaussian 09, Revision D.01,
 M. J. Frisch, G. W. Trucks, H. B. Schlegel, G. E. Scuseria, 
 M. A. Robb, J. R. Cheeseman, G. Scalmani, V. Barone, B. Mennucci, 
 G. A. Petersson, H. Nakatsuji, M. Caricato, X. Li, H. P. Hratchian, 
 A. F. Izmaylov, J. Bloino, G. Zheng, J. L. Sonnenberg, M. Hada, 
 M. Ehara, K. Toyota, R. Fukuda, J. Hasegawa, M. Ishida, T. Nakajima, 
 Y. Honda, O. Kitao, H. Nakai, T. Vreven, J. A. Montgomery, Jr., 
 J. E. Peralta, F. Ogliaro, M. Bearpark, J. J. Heyd, E. Brothers, 
 K. N. Kudin, V. N. Staroverov, T. Keith, R. Kobayashi, J. Normand, 
 K. Raghavachari, A. Rendell, J. C. Burant, S. S. Iyengar, J. Tomasi, 
 M. Cossi, N. Rega, J. M. Millam, M. Klene, J. E. Knox, J. B. Cross, 
 V. Bakken, C. Adamo, J. Jaramillo, R. Gomperts, R. E. Stratmann, 
 O. Yazyev, A. J. Austin, R. Cammi, C. Pomelli, J. W. Ochterski, 
 R. L. Martin, K. Morokuma, V. G. Zakrzewski, G. A. Voth, 
 P. Salvador, J. J. Dannenberg, S. Dapprich, A. D. Daniels, 
 O. Farkas, J. B. Foresman, J. V. Ortiz, J. Cioslowski, 
 and D. J. Fox, Gaussian, Inc., Wallingford CT, 2013.
 
 ******************************************
 Gaussian 09:  ES64L-G09RevD.01 24-Apr-2013
                23-Apr-2015 
 ******************************************
 %NProcShared=12
 Will use up to   12 processors via shared memory.
 %LindaWorkers=compute-1-17:12
 %UseSSH
 %DebugLinda
 %NProcShared=12
 Will use up to   12 processors via shared memory.
 %Chk=04_24_Homework42c_Interm2.chk
 SetLPE:  input flags=""
 SetLPE:    new flags="-vv -opt 'Tsnet.Node.lindarsharg: ssh' -mp 12 -nodelist 'compute-1-17.local' -opt 'Tsnet.compute-1-17_local.speedfactor: 12'"
 Will use up to   12 processors via Linda.
 ------------------------------------------------
 #n RHF/6-31G(d,p) pop=Reg Opt=z-matrix formcheck
 ------------------------------------------------
 1/10=7,18=40,38=1/1,3;
 2/12=2,17=6,18=5,29=3,40=1/2;
 3/5=1,6=6,7=101,11=1,16=1,25=1,30=1,71=1,116=1/1,2,3;
 4//1;
 5/5=2,38=5/2;
 6/28=1/1;
 7/29=1/1,2,3,16;
 1/10=7,18=40/3(2);
 2/29=3/2;
 99//99;
 2/29=3/2;
 3/5=1,6=6,7=101,11=1,16=1,25=1,30=1,71=1,116=1/1,2,3;
 4/5=5,16=3,69=1/1;
 5/5=2,38=5/2;
 7//1,2,3,16;
 1/18=40/3(-5);
 2/29=3/2;
 6/19=2,28=1/1;
 99/9=1/99;
 -----
 Hw42c
 -----
 Symbolic Z-matrix:
 Charge =  1 Multiplicity = 1
 C
 C                    1    B1
 H                    2    B2       1    A2
 H                    2    B3       1    A3       3    D3       0
 H                    2    B4       1    A4       3    D4       0
 C                    1    B5       2    A5       3    D5       0
 H                    6    B6       1    A6       2    D6       0
 H                    6    B7       1    A7       2    D7       0
 H                    6    B8       1    A8       2    D8       0
 C                    1    B9       2    A9       3    D9       0
 H                    1    B10      2    A10      3    D10      0
 H                    10   B11      1    A11      2    D11      0
 H                    10   B12      1    A12      2    D12      0
       Variables:
  B1                    1.52758                  
  B2                    1.09598                  
  A2                  111.5243                   
  B3                    1.0958                   
  A3                  111.07246                  
  D3                  239.63364                  
  B4                    1.09536                  
  A4                  110.6864                   
  D4                  120.15653                  
  B5                    1.52757                  
  A5                  110.39431                  
  D5                  298.39932                  
  B6                    1.09536                  
  A6                  110.68854                  
  D6                  301.5102                   
  B7                    1.0958                   
  A7                  111.07007                  
  D7                  182.03215                  
  B8                    1.09598                  
  A8                  111.52419                  
  D8                   61.66837                  
  B9                    1.49904                  
  A9                  110.74852                  
  D9                   61.4242                   
  B10                   1.09653 -1        0.     
  A10                 108.41835                  
  D10                 179.77173                  
  B11                   1.08509                  
  A11                 120.28321                  
  D11                 200.46205                  
  B12                   1.0851                   
  A12                 120.28223                  
  D12                  36.68466                  
 

 GradGradGradGradGradGradGradGradGradGradGradGradGradGradGradGradGradGrad
 Berny optimization.
 Initialization pass.
                       ----------------------------
                       !    Initial Parameters    !
                       ! (Angstroms and Degrees)  !
 ----------------------                            ----------------------
 !      Name          Value   Derivative information (Atomic Units)     !
 ------------------------------------------------------------------------
 !       B1          1.5276   estimate D2E/DX2                          !
 !       B2          1.096    estimate D2E/DX2                          !
 !       A2        111.5243   estimate D2E/DX2                          !
 !       B3          1.0958   estimate D2E/DX2                          !
 !       A3        111.0725   estimate D2E/DX2                          !
 !       D3        239.6336   estimate D2E/DX2                          !
 !       B4          1.0954   estimate D2E/DX2                          !
 !       A4        110.6864   estimate D2E/DX2                          !
 !       D4        120.1565   estimate D2E/DX2                          !
 !       B5          1.5276   estimate D2E/DX2                          !
 !       A5        110.3943   estimate D2E/DX2                          !
 !       D5        298.3993   estimate D2E/DX2                          !
 !       B6          1.0954   estimate D2E/DX2                          !
 !       A6        110.6885   estimate D2E/DX2                          !
 !       D6        301.5102   estimate D2E/DX2                          !
 !       B7          1.0958   estimate D2E/DX2                          !
 !       A7        111.0701   estimate D2E/DX2                          !
 !       D7        182.0322   estimate D2E/DX2                          !
 !       B8          1.096    estimate D2E/DX2                          !
 !       A8        111.5242   estimate D2E/DX2                          !
 !       D8         61.6684   estimate D2E/DX2                          !
 !       B9          1.499    estimate D2E/DX2                          !
 !       A9        110.7485   estimate D2E/DX2                          !
 !       D9         61.4242   estimate D2E/DX2                          !
 !       B10         1.0965   Frozen                                    !
 !       A10       108.4184   estimate D2E/DX2                          !
 !       D10       179.7717   estimate D2E/DX2                          !
 !       B11         1.0851   estimate D2E/DX2                          !
 !       A11       120.2832   estimate D2E/DX2                          !
 !       D11       200.4621   estimate D2E/DX2                          !
 !       B12         1.0851   estimate D2E/DX2                          !
 !       A12       120.2822   estimate D2E/DX2                          !
 !       D12        36.6847   estimate D2E/DX2                          !
 ------------------------------------------------------------------------
 Trust Radius=3.00D-01 FncErr=1.00D-07 GrdErr=1.00D-07
 Number of steps in this run=     43 maximum allowed number of steps=    100.
 GradGradGradGradGradGradGradGradGradGradGradGradGradGradGradGradGradGrad

 ---------------------------------------------------------------------------------------------------
                            Z-MATRIX (ANGSTROMS AND DEGREES)
   CD    Cent   Atom    N1       Length/X        N2       Alpha/Y        N3        Beta/Z          J
 ---------------------------------------------------------------------------------------------------
      1      1  C 
      2      2  C        1   1.527580(     1)
      3      3  H        2   1.095980(     2)      1  111.524(    13)
      4      4  H        2   1.095800(     3)      1  111.072(    14)      3  239.634(    24)      0
      5      5  H        2   1.095360(     4)      1  110.686(    15)      3  120.157(    25)      0
      6      6  C        1   1.527570(     5)      2  110.394(    16)      3  298.399(    26)      0
      7      7  H        6   1.095360(     6)      1  110.689(    17)      2  301.510(    27)      0
      8      8  H        6   1.095800(     7)      1  111.070(    18)      2  182.032(    28)      0
      9      9  H        6   1.095980(     8)      1  111.524(    19)      2   61.668(    29)      0
     10     10  C        1   1.499040(     9)      2  110.749(    20)      3   61.424(    30)      0
     11     11  H        1   1.096530(    10)      2  108.418(    21)      3  179.772(    31)      0
     12     12  H       10   1.085090(    11)      1  120.283(    22)      2  200.462(    32)      0
     13     13  H       10   1.085100(    12)      1  120.282(    23)      2   36.685(    33)      0
 ---------------------------------------------------------------------------------------------------
                         Z-Matrix orientation:                         
 ---------------------------------------------------------------------
 Center     Atomic      Atomic             Coordinates (Angstroms)
 Number     Number       Type             X           Y           Z
 ---------------------------------------------------------------------
      1          6           0        0.000000    0.000000    0.000000
      2          6           0        0.000000    0.000000    1.527580
      3          1           0        1.019549    0.000000    1.929690
      4          1           0       -0.516912   -0.882241    1.921573
      5          1           0       -0.514792    0.886048    1.914519
      6          6           0        0.680992    1.259504   -0.532326
      7          1           0        0.173784    2.158256   -0.165178
      8          1           0        0.655349    1.288315   -1.627447
      9          1           0        1.729868    1.312542   -0.218930
     10          6           0        0.670519   -1.231056   -0.531060
     11          1           0       -1.040352   -0.004145   -0.346452
     12          1           0        1.054179   -1.250611   -1.545872
     13          1           0        0.550998   -2.181957   -0.022195
 ---------------------------------------------------------------------
                    Distance matrix (angstroms):
                    1          2          3          4          5
     1  C    0.000000
     2  C    1.527580   0.000000
     3  H    2.182472   1.095980   0.000000
     4  H    2.176692   1.095800   1.771758   0.000000
     5  H    2.171514   1.095360   1.771867   1.768304   0.000000
     6  C    1.527570   2.508647   2.786125   3.470398   2.748894
     7  H    2.171532   2.748399   3.124398   3.751828   2.533336
     8  H    2.176654   3.470365   3.800740   4.322158   3.751876
     9  H    2.182462   2.786666   2.616083   3.800901   3.126020
    10  C    1.499040   2.490601   2.773556   2.747194   3.444989
    11  H    1.096530   2.143442   3.069858   2.487766   2.486090
    12  H    2.250565   3.481584   3.693882   3.824552   4.359047
    13  H    2.250562   2.732460   2.964850   2.570589   3.781458
                    6          7          8          9         10
     6  C    0.000000
     7  H    1.095360   0.000000
     8  H    1.095800   1.768314   0.000000
     9  H    1.095980   1.771870   1.771750   0.000000
    10  C    2.490582   3.445004   2.747640   2.773001   0.000000
    11  H    2.143451   2.486556   2.487328   3.069861   2.113403
    12  H    2.732621   3.781770   2.571354   2.964301   1.085090
    13  H    3.481492   4.358920   3.824985   3.693232   1.085100
                   11         12         13
    11  H    0.000000
    12  H    2.716495   0.000000
    13  H    2.716690   1.855314   0.000000
 Stoichiometry    C4H9(1+)
 Framework group  C1[X(C4H9)]
 Deg. of freedom    33
 Full point group                 C1      NOp   1
 Largest Abelian subgroup         C1      NOp   1
 Largest concise Abelian subgroup C1      NOp   1
                         Standard orientation:                         
 ---------------------------------------------------------------------
 Center     Atomic      Atomic             Coordinates (Angstroms)
 Number     Number       Type             X           Y           Z
 ---------------------------------------------------------------------
      1          6           0        0.000014    0.056944    0.366158
      2          6           0       -1.254394   -0.676941   -0.104347
      3          1           0       -1.307832   -0.721358   -1.198122
      4          1           0       -2.161119   -0.178675    0.256705
      5          1           0       -1.267103   -1.704217    0.275595
      6          6           0        1.254253   -0.677183   -0.104384
      7          1           0        1.266233   -1.704832    0.274574
      8          1           0        2.161039   -0.179719    0.257620
      9          1           0        1.308251   -0.720568   -1.198172
     10          6           0        0.000156    1.474550   -0.121196
     11          1           0        0.000018    0.075171    1.462536
     12          1           0        0.927824    2.034982   -0.173820
     13          1           0       -0.927490    2.034992   -0.174301
 ---------------------------------------------------------------------
 Rotational constants (GHZ):      8.4403731      8.0177548      4.6783329
 Standard basis: 6-31G(d,p) (6D, 7F)
 There are   105 symmetry adapted cartesian basis functions of A   symmetry.
 There are   105 symmetry adapted basis functions of A   symmetry.
   105 basis functions,   175 primitive gaussians,   105 cartesian basis functions
    16 alpha electrons       16 beta electrons
       nuclear repulsion energy       126.6763175679 Hartrees.
 NAtoms=   13 NActive=   13 NUniq=   13 SFac= 1.00D+00 NAtFMM=   60 NAOKFM=F Big=F
 Integral buffers will be    131072 words long.
 Raffenetti 1 integral format.
 Two-electron integral symmetry is turned on.
 One-electron integrals computed using PRISM.
 PrsmSu:  requested number of processors reduced to:  10 ShMem   1 Linda.
 NBasis=   105 RedAO= T EigKep=  4.73D-03  NBF=   105
 NBsUse=   105 1.00D-06 EigRej= -1.00D+00 NBFU=   105
 ExpMin= 1.61D-01 ExpMax= 3.05D+03 ExpMxC= 4.57D+02 IAcc=1 IRadAn=         1 AccDes= 0.00D+00
 Harris functional with IExCor=  205 and IRadAn=       1 diagonalized for initial guess.
 HarFok:  IExCor=  205 AccDes= 0.00D+00 IRadAn=         1 IDoV= 1 UseB2=F ITyADJ=14
 ICtDFT=  3500011 ScaDFX=  1.000000  1.000000  1.000000  1.000000
 FoFCou: FMM=F IPFlag=           0 FMFlag=      100000 FMFlg1=           0
         NFxFlg=           0 DoJE=T BraDBF=F KetDBF=T FulRan=T
         wScrn=  0.000000 ICntrl=     500 IOpCl=  0 I1Cent=   200000004 NGrid=           0
         NMat0=    1 NMatS0=      1 NMatT0=    0 NMatD0=    1 NMtDS0=    0 NMtDT0=    0
 Petite list used in FoFCou.
 Keep R1 ints in memory in canonical form, NReq=16424213.
 Requested convergence on RMS density matrix=1.00D-08 within 128 cycles.
 Requested convergence on MAX density matrix=1.00D-06.
 Requested convergence on             energy=1.00D-06.
 No special actions if energy rises.
 SCF Done:  E(RHF) =  -156.395563169     A.U. after   13 cycles
            NFock= 13  Conv=0.27D-08     -V/T= 2.0013

 **********************************************************************

            Population analysis using the SCF density.

 **********************************************************************

 Orbital symmetries:
       Occupied  (A) (A) (A) (A) (A) (A) (A) (A) (A) (A) (A) (A)
                 (A) (A) (A) (A)
       Virtual   (A) (A) (A) (A) (A) (A) (A) (A) (A) (A) (A) (A)
                 (A) (A) (A) (A) (A) (A) (A) (A) (A) (A) (A) (A)
                 (A) (A) (A) (A) (A) (A) (A) (A) (A) (A) (A) (A)
                 (A) (A) (A) (A) (A) (A) (A) (A) (A) (A) (A) (A)
                 (A) (A) (A) (A) (A) (A) (A) (A) (A) (A) (A) (A)
                 (A) (A) (A) (A) (A) (A) (A) (A) (A) (A) (A) (A)
                 (A) (A) (A) (A) (A) (A) (A) (A) (A) (A) (A) (A)
                 (A) (A) (A) (A) (A)
 The electronic state is 1-A.
 Alpha  occ. eigenvalues --  -11.61848 -11.47075 -11.40584 -11.40581  -1.33423
 Alpha  occ. eigenvalues --   -1.17376  -1.12420  -1.00326  -0.90622  -0.86174
 Alpha  occ. eigenvalues --   -0.80214  -0.73901  -0.71617  -0.70754  -0.68703
 Alpha  occ. eigenvalues --   -0.67061
 Alpha virt. eigenvalues --   -0.22077   0.02317   0.07169   0.07204   0.10398
 Alpha virt. eigenvalues --    0.12575   0.12937   0.15312   0.17071   0.17663
 Alpha virt. eigenvalues --    0.19283   0.21193   0.24071   0.46744   0.48927
 Alpha virt. eigenvalues --    0.52138   0.53959   0.54184   0.58057   0.64243
 Alpha virt. eigenvalues --    0.72458   0.73725   0.75267   0.77873   0.83896
 Alpha virt. eigenvalues --    0.83983   0.88404   0.92774   0.94091   0.98132
 Alpha virt. eigenvalues --    0.98369   0.99151   1.00803   1.01985   1.05042
 Alpha virt. eigenvalues --    1.15879   1.32431   1.34608   1.45551   1.52945
 Alpha virt. eigenvalues --    1.64086   1.65149   1.69900   1.81945   1.85833
 Alpha virt. eigenvalues --    1.91133   1.93505   1.95272   2.04102   2.07203
 Alpha virt. eigenvalues --    2.08088   2.17278   2.17510   2.21357   2.23844
 Alpha virt. eigenvalues --    2.25729   2.26311   2.29268   2.39431   2.40824
 Alpha virt. eigenvalues --    2.43285   2.44581   2.48446   2.56220   2.56865
 Alpha virt. eigenvalues --    2.71442   2.76960   2.79835   2.82766   2.85709
 Alpha virt. eigenvalues --    2.90692   2.91676   3.02708   3.02986   3.05240
 Alpha virt. eigenvalues --    3.10386   3.34049   3.36192   3.40451   3.50722
 Alpha virt. eigenvalues --    3.50981   3.61302   3.64758   3.69309   3.69532
 Alpha virt. eigenvalues --    4.36796   4.58054   4.74270   4.88062
     Molecular Orbital Coefficients:
                          12        13        14        15        16
                           O         O         O         O         O
     Eigenvalues --    -0.73901  -0.71617  -0.70754  -0.68703  -0.67061
   1 1   C  1S          0.00000  -0.00001  -0.02408  -0.00674   0.00000
   2        2S          0.00000   0.00001   0.04570   0.02320  -0.00001
   3        2PX         0.25963   0.04958  -0.00006   0.00007   0.31843
   4        2PY        -0.00006  -0.00011  -0.21158  -0.07821   0.00000
   5        2PZ        -0.00002   0.00004   0.00535  -0.25567   0.00009
   6        3S          0.00003   0.00007   0.11014   0.00152  -0.00003
   7        3PX         0.19037   0.03026  -0.00005   0.00005   0.18668
   8        3PY        -0.00002  -0.00008  -0.07333  -0.07611  -0.00001
   9        3PZ        -0.00002  -0.00001  -0.01319  -0.15637   0.00008
  10        4XX         0.00000   0.00001   0.02046   0.02117  -0.00001
  11        4YY         0.00000  -0.00002  -0.02700   0.00503   0.00000
  12        4ZZ         0.00000   0.00001   0.00560  -0.02319   0.00001
  13        4XY        -0.00868   0.00530  -0.00001   0.00000  -0.01770
  14        4XZ        -0.00238  -0.01173   0.00001  -0.00001  -0.01476
  15        4YZ         0.00000   0.00000   0.00836  -0.01088   0.00000
  16 2   C  1S         -0.00525  -0.00162  -0.00332  -0.00713   0.01469
  17        2S          0.00467   0.00652   0.00337   0.01323  -0.02865
  18        2PX        -0.02048   0.00386   0.00192   0.01064  -0.31246
  19        2PY        -0.20029  -0.22405   0.27577   0.05501   0.02782
  20        2PZ        -0.21832   0.22089  -0.03744   0.25721   0.02534
  21        3S          0.06586   0.00768   0.00776   0.01579  -0.03562
  22        3PX         0.01853   0.00406  -0.01057  -0.01595  -0.16312
  23        3PY        -0.09143  -0.14083   0.16178   0.02991   0.03538
  24        3PZ        -0.09634   0.13313  -0.02522   0.14998   0.02829
  25        4XX        -0.01435  -0.00248   0.01395   0.01329   0.00679
  26        4YY        -0.00124   0.01665  -0.01662   0.00864  -0.00299
  27        4ZZ         0.01412  -0.01322   0.00220  -0.02294  -0.00304
  28        4XY        -0.00211  -0.00148   0.00036   0.00050  -0.02104
  29        4XZ        -0.00057   0.00051   0.00031  -0.00274  -0.01330
  30        4YZ        -0.00950  -0.00924   0.01191  -0.00052   0.00145
  31 3   H  1S          0.15158  -0.13964   0.02190  -0.18193  -0.02465
  32        2S          0.11738  -0.10541   0.01952  -0.16424  -0.01385
  33        3PX         0.00036  -0.00083   0.00010  -0.00167  -0.00461
  34        3PY        -0.00127  -0.00420   0.00431  -0.00079   0.00019
  35        3PZ         0.00740  -0.00600   0.00073  -0.00736  -0.00087
  36 4   H  1S         -0.09191  -0.01868   0.08073   0.07888   0.18935
  37        2S         -0.06863  -0.01231   0.06461   0.06046   0.17133
  38        3PX        -0.00584  -0.00094   0.00449   0.00446   0.00557
  39        3PY        -0.00089  -0.00250   0.00216  -0.00096  -0.00353
  40        3PZ        -0.00174   0.00349  -0.00224   0.00209  -0.00360
  41 5   H  1S          0.07448   0.18936  -0.18549   0.03479  -0.02548
  42        2S          0.04768   0.12609  -0.14358   0.02860  -0.01531
  43        3PX        -0.00041   0.00066  -0.00138   0.00037  -0.00440
  44        3PY         0.00201   0.00879  -0.00717   0.00268  -0.00101
  45        3PZ        -0.00493  -0.00084   0.00323   0.00308   0.00067
  46 6   C  1S          0.00525   0.00163  -0.00332  -0.00713  -0.01468
  47        2S         -0.00467  -0.00652   0.00337   0.01325   0.02864
  48        2PX        -0.02042   0.00391  -0.00189  -0.01081  -0.31246
  49        2PY         0.20037   0.22431   0.27551   0.05497  -0.02783
  50        2PZ         0.21838  -0.22093  -0.03728   0.25711  -0.02549
  51        3S         -0.06585  -0.00775   0.00781   0.01578   0.03560
  52        3PX         0.01857   0.00415   0.01056   0.01589  -0.16315
  53        3PY         0.09148   0.14100   0.16161   0.02991  -0.03540
  54        3PZ         0.09637  -0.13313  -0.02511   0.14991  -0.02838
  55        4XX         0.01436   0.00248   0.01393   0.01329  -0.00680
  56        4YY         0.00121  -0.01668  -0.01663   0.00862   0.00302
  57        4ZZ        -0.01410   0.01326   0.00222  -0.02293   0.00302
  58        4XY        -0.00212  -0.00150  -0.00039  -0.00051  -0.02102
  59        4XZ        -0.00054   0.00049  -0.00031   0.00275  -0.01332
  60        4YZ         0.00953   0.00921   0.01188  -0.00048  -0.00147
  61 7   H  1S         -0.07467  -0.18944  -0.18534   0.03463   0.02561
  62        2S         -0.04782  -0.12615  -0.14348   0.02851   0.01542
  63        3PX        -0.00042   0.00065   0.00137  -0.00037  -0.00440
  64        3PY        -0.00203  -0.00880  -0.00717   0.00267   0.00102
  65        3PZ         0.00493   0.00083   0.00322   0.00308  -0.00067
  66 8   H  1S          0.09200   0.01853   0.08053   0.07888  -0.18940
  67        2S          0.06869   0.01218   0.06445   0.06043  -0.17135
  68        3PX        -0.00585  -0.00093  -0.00448  -0.00446   0.00557
  69        3PY         0.00089   0.00251   0.00216  -0.00096   0.00352
  70        3PZ         0.00173  -0.00348  -0.00224   0.00209   0.00360
  71 9   H  1S         -0.15152   0.13982   0.02198  -0.18183   0.02463
  72        2S         -0.11734   0.10559   0.01960  -0.16418   0.01384
  73        3PX         0.00037  -0.00083  -0.00011   0.00167  -0.00461
  74        3PY         0.00128   0.00420   0.00431  -0.00078  -0.00019
  75        3PZ        -0.00740   0.00601   0.00073  -0.00735   0.00087
  76 10  C  1S          0.00000   0.00002   0.03782  -0.00938   0.00000
  77        2S          0.00000  -0.00005  -0.08843   0.02649  -0.00001
  78        2PX        -0.11740  -0.07004   0.00009   0.00004  -0.03695
  79        2PY         0.00003   0.00013   0.23248  -0.06401   0.00000
  80        2PZ        -0.00007  -0.00008  -0.09346  -0.06715   0.00000
  81        3S         -0.00004  -0.00003  -0.14768   0.03393   0.00002
  82        3PX        -0.07716  -0.04128   0.00005   0.00000  -0.02253
  83        3PY         0.00004   0.00006   0.13008  -0.05006  -0.00002
  84        3PZ        -0.00004  -0.00005  -0.05679  -0.03260   0.00000
  85        4XX         0.00000   0.00000   0.01031   0.00206   0.00000
  86        4YY         0.00000   0.00000  -0.00570   0.00819   0.00000
  87        4ZZ         0.00000   0.00000  -0.00219  -0.00742   0.00000
  88        4XY        -0.01807  -0.01053   0.00001   0.00000  -0.01470
  89        4XZ         0.00362  -0.00018   0.00000   0.00000   0.00230
  90        4YZ         0.00000   0.00000   0.00662   0.00592   0.00000
  91 11  H  1S         -0.00001   0.00004   0.03114  -0.18478   0.00007
  92        2S          0.00000   0.00005   0.02920  -0.16501   0.00005
  93        3PX         0.00394  -0.00031   0.00000   0.00000   0.00487
  94        3PY         0.00000   0.00000  -0.00392  -0.00355   0.00000
  95        3PZ         0.00000   0.00000  -0.00187   0.00833   0.00000
  96 12  H  1S         -0.07405  -0.04305   0.04400  -0.00528  -0.03767
  97        2S         -0.04963  -0.02956   0.04404   0.00421  -0.04595
  98        3PX         0.00243   0.00160  -0.00215   0.00081   0.00030
  99        3PY         0.00170   0.00068   0.00126  -0.00031   0.00104
 100        3PZ         0.00012  -0.00029  -0.00119  -0.00134  -0.00001
 101 13  H  1S          0.07407   0.04310   0.04392  -0.00530   0.03767
 102        2S          0.04964   0.02959   0.04399   0.00418   0.04595
 103        3PX         0.00243   0.00161   0.00215  -0.00081   0.00030
 104        3PY        -0.00170  -0.00068   0.00126  -0.00031  -0.00104
 105        3PZ        -0.00012   0.00029  -0.00118  -0.00134   0.00001
                          17        18        19        20        21
                           V         V         V         V         V
     Eigenvalues --    -0.22077   0.02317   0.07169   0.07204   0.10398
   1 1   C  1S         -0.00525  -0.02922  -0.00317  -0.08885   0.02066
   2        2S          0.01542   0.00807   0.00265   0.07428  -0.01934
   3        2PX         0.00002  -0.00002   0.06091  -0.00216   0.00004
   4        2PY        -0.00885  -0.02899   0.00363   0.10310   0.06524
   5        2PZ        -0.08431   0.06606   0.00555   0.15319  -0.19601
   6        3S          0.00830   0.78515   0.06091   1.70554  -0.33338
   7        3PX         0.00003  -0.00006  -0.02734   0.00098   0.00030
   8        3PY         0.03310  -0.01745   0.01224   0.34651   0.37888
   9        3PZ        -0.07503   0.05438   0.02766   0.76527  -0.81661
  10        4XX         0.00994  -0.00135   0.00016   0.00424  -0.00351
  11        4YY         0.01430   0.00375  -0.00007  -0.00204  -0.00614
  12        4ZZ        -0.02430  -0.00486  -0.00015  -0.00398   0.01703
  13        4XY        -0.00001  -0.00001   0.03031  -0.00108   0.00001
  14        4XZ         0.00000   0.00000  -0.00278   0.00010   0.00000
  15        4YZ         0.01866  -0.00034   0.00001   0.00017   0.00397
  16 2   C  1S         -0.01786  -0.04136  -0.01911  -0.03867  -0.05292
  17        2S          0.03109   0.04731   0.04188   0.03932   0.03547
  18        2PX         0.05460  -0.06159   0.10688  -0.05547  -0.02367
  19        2PY         0.03641  -0.00445   0.00082  -0.04426  -0.02350
  20        2PZ         0.00320   0.00720   0.02546  -0.01307  -0.15125
  21        3S          0.12757   0.54800   0.04171   0.68454   0.96216
  22        3PX         0.05793  -0.30226   0.26886  -0.26982  -0.13487
  23        3PY        -0.00683  -0.14081  -0.03083  -0.14501  -0.12383
  24        3PZ        -0.00926   0.02449   0.01051  -0.24720  -0.40643
  25        4XX         0.00457  -0.00034   0.00153  -0.00878  -0.00263
  26        4YY        -0.00270  -0.01026  -0.00848   0.00458   0.00030
  27        4ZZ        -0.00271   0.00053   0.00475  -0.00183  -0.00810
  28        4XY        -0.00027  -0.00027  -0.00350   0.00474   0.00386
  29        4XZ         0.00056   0.00194   0.00190   0.00688  -0.00678
  30        4YZ         0.00332   0.00264   0.00061   0.00230  -0.00353
  31 3   H  1S         -0.00087   0.02122   0.00959   0.00422  -0.02552
  32        2S         -0.07228  -0.15818   0.02712  -0.41302  -1.09015
  33        3PX        -0.00018  -0.00139   0.00068  -0.00519  -0.00084
  34        3PY        -0.00110  -0.00067  -0.00062  -0.00211  -0.00038
  35        3PZ        -0.00011   0.00044   0.00043  -0.00165  -0.00171
  36 4   H  1S          0.00575   0.01259   0.00529  -0.03389  -0.00531
  37        2S          0.02225  -0.42376   0.26900  -0.44709  -0.20365
  38        3PX         0.00135  -0.00262   0.00266   0.00008  -0.00070
  39        3PY         0.00135  -0.00413   0.00070   0.00207  -0.00014
  40        3PZ         0.00030   0.00070   0.00037  -0.00044  -0.00077
  41 5   H  1S         -0.01836  -0.02673  -0.01750   0.02555   0.01892
  42        2S         -0.06652  -0.39141  -0.15519  -0.28578  -0.17018
  43        3PX         0.00093  -0.00149   0.00256  -0.00269  -0.00287
  44        3PY        -0.00026  -0.00021   0.00243  -0.00049  -0.00110
  45        3PZ         0.00011   0.00060   0.00123  -0.00150  -0.00276
  46 6   C  1S         -0.01788  -0.04137   0.01632  -0.03993  -0.05292
  47        2S          0.03112   0.04732  -0.03897   0.04220   0.03548
  48        2PX        -0.05463   0.06150   0.11050   0.04776   0.02371
  49        2PY         0.03649  -0.00449  -0.00401  -0.04403  -0.02351
  50        2PZ         0.00318   0.00723  -0.02632  -0.01124  -0.15138
  51        3S          0.12770   0.54809   0.00702   0.68578   0.96196
  52        3PX        -0.05793   0.30194   0.28712   0.25029   0.13501
  53        3PY        -0.00669  -0.14105   0.02025  -0.14632  -0.12394
  54        3PZ        -0.00938   0.02446  -0.02829  -0.24584  -0.40695
  55        4XX         0.00457  -0.00035  -0.00215  -0.00865  -0.00263
  56        4YY        -0.00271  -0.01027   0.00879   0.00397   0.00031
  57        4ZZ        -0.00271   0.00054  -0.00487  -0.00150  -0.00811
  58        4XY         0.00027   0.00026  -0.00381  -0.00447  -0.00385
  59        4XZ        -0.00057  -0.00194   0.00140  -0.00700   0.00678
  60        4YZ         0.00333   0.00263  -0.00043   0.00234  -0.00352
  61 7   H  1S         -0.01840  -0.02673   0.01924   0.02430   0.01893
  62        2S         -0.06653  -0.39149   0.13442  -0.29554  -0.17052
  63        3PX        -0.00093   0.00149   0.00273   0.00250   0.00287
  64        3PY        -0.00026  -0.00021  -0.00246  -0.00031  -0.00110
  65        3PZ         0.00011   0.00060  -0.00133  -0.00141  -0.00277
  66 8   H  1S          0.00575   0.01259  -0.00765  -0.03345  -0.00528
  67        2S          0.02220  -0.42359  -0.29954  -0.42728  -0.20303
  68        3PX        -0.00135   0.00261   0.00265  -0.00027   0.00070
  69        3PY         0.00135  -0.00413  -0.00055   0.00212  -0.00014
  70        3PZ         0.00030   0.00070  -0.00040  -0.00042  -0.00077
  71 9   H  1S         -0.00085   0.02123  -0.00927   0.00485  -0.02554
  72        2S         -0.07234  -0.15823  -0.05678  -0.41013  -1.09072
  73        3PX         0.00018   0.00139   0.00105   0.00513   0.00085
  74        3PY        -0.00110  -0.00067   0.00047  -0.00215  -0.00038
  75        3PZ        -0.00011   0.00044  -0.00054  -0.00161  -0.00171
  76 10  C  1S          0.01684  -0.09613   0.00273   0.07749   0.03112
  77        2S         -0.02619   0.18411  -0.00181  -0.05244  -0.04160
  78        2PX        -0.00012  -0.00003   0.36852  -0.01319   0.00009
  79        2PY         0.12118   0.16939  -0.00294  -0.08271   0.01044
  80        2PZ         0.46735  -0.02551  -0.00092  -0.02798  -0.10427
  81        3S         -0.13969   1.36854  -0.05059  -1.43277  -0.58866
  82        3PX        -0.00017  -0.00006   1.36484  -0.04880   0.00026
  83        3PY         0.15341   0.73396   0.00010   0.00480   0.36871
  84        3PZ         0.60483  -0.11484  -0.01163  -0.33495   0.01082
  85        4XX         0.00332  -0.01286   0.00048   0.01343  -0.00504
  86        4YY         0.00308   0.00361   0.00050   0.01422   0.00925
  87        4ZZ        -0.00371   0.00384   0.00001   0.00019  -0.00039
  88        4XY         0.00000   0.00000  -0.02191   0.00078   0.00000
  89        4XZ         0.00000  -0.00001   0.00454  -0.00016   0.00001
  90        4YZ         0.00188  -0.00422  -0.00064  -0.01784   0.00513
  91 11  H  1S         -0.11594   0.00149  -0.00057  -0.01513   0.08361
  92        2S         -0.19410  -0.39811  -0.05223  -1.45037   1.34013
  93        3PX         0.00000   0.00000   0.00270  -0.00010   0.00000
  94        3PY         0.00461  -0.00090   0.00000   0.00009   0.00626
  95        3PZ         0.00155   0.00055   0.00016   0.00441  -0.00154
  96 12  H  1S          0.02076  -0.04705  -0.06280   0.04734  -0.00139
  97        2S          0.04154  -1.17326  -1.53613   0.75061   0.08187
  98        3PX        -0.00093  -0.00476   0.00208   0.00270  -0.00029
  99        3PY         0.00305   0.00412  -0.00492   0.00174   0.00308
 100        3PZ         0.01371  -0.00137   0.00003  -0.00365  -0.00355
 101 13  H  1S          0.02076  -0.04707   0.06601   0.04277  -0.00136
 102        2S          0.04154  -1.17346   1.58518   0.63888   0.08247
 103        3PX         0.00092   0.00476   0.00188  -0.00284   0.00030
 104        3PY         0.00305   0.00412   0.00503   0.00139   0.00308
 105        3PZ         0.01371  -0.00137  -0.00029  -0.00364  -0.00356
     Density Matrix:
                           1         2         3         4         5
   1 1   C  1S          2.05982
   2        2S         -0.08422   0.26609
   3        2PX         0.00000   0.00000   0.41667
   4        2PY         0.01603  -0.03016  -0.00001   0.32889
   5        2PZ        -0.00524   0.00499   0.00001   0.02330   0.36789
   6        3S         -0.20342   0.30533  -0.00002  -0.09506   0.02721
   7        3PX         0.00000   0.00000   0.23929  -0.00001   0.00001
   8        3PY         0.00422  -0.01207  -0.00001   0.13726   0.05910
   9        3PZ         0.00610  -0.00845   0.00001   0.03610   0.22524
  10        4XX        -0.00423   0.00292  -0.00001  -0.02017  -0.01389
  11        4YY        -0.00277  -0.00004   0.00000   0.02112  -0.00967
  12        4ZZ        -0.00334   0.00150   0.00000  -0.00054   0.02134
  13        4XY         0.00000   0.00000  -0.01791   0.00001   0.00000
  14        4XZ         0.00000   0.00000  -0.01606   0.00000   0.00000
  15        4YZ        -0.00060   0.00094   0.00000  -0.01223   0.00987
  16 2   C  1S          0.00979  -0.01742   0.04966   0.02724   0.01811
  17        2S         -0.01942   0.03424  -0.09569  -0.05231  -0.03495
  18        2PX        -0.05151   0.09818  -0.20973  -0.11604  -0.07232
  19        2PY        -0.03076   0.05911  -0.12359  -0.06178  -0.04219
  20        2PZ        -0.01797   0.03956  -0.07931  -0.04449  -0.02727
  21        3S          0.01801  -0.01818  -0.06806  -0.03356  -0.01614
  22        3PX        -0.00658   0.01865  -0.09666  -0.03682  -0.01058
  23        3PY        -0.00431   0.01278  -0.04578  -0.04275  -0.02267
  24        3PZ        -0.00275   0.01011  -0.01941  -0.01961  -0.03855
  25        4XX        -0.00487   0.00829  -0.00335  -0.00943  -0.00569
  26        4YY         0.00016  -0.00090  -0.00130   0.00603  -0.00210
  27        4ZZ         0.00113  -0.00319   0.00446   0.00346   0.00892
  28        4XY        -0.00479   0.00860  -0.01534  -0.00410  -0.00518
  29        4XZ        -0.00336   0.00583  -0.00900  -0.00490   0.00261
  30        4YZ        -0.00189   0.00329  -0.00558  -0.00230   0.00195
  31 3   H  1S          0.00649  -0.01779   0.02203   0.01520   0.02452
  32        2S          0.00739  -0.01783   0.03592   0.01962   0.04201
  33        3PX        -0.00045   0.00100  -0.00297  -0.00157  -0.00115
  34        3PY        -0.00030   0.00062  -0.00140  -0.00088  -0.00036
  35        3PZ         0.00019  -0.00048  -0.00005  -0.00014  -0.00014
  36 4   H  1S          0.00742  -0.01414   0.03741   0.00760   0.00138
  37        2S          0.00821  -0.01506   0.06244   0.00886   0.00739
  38        3PX        -0.00023   0.00055  -0.00238  -0.00109  -0.00075
  39        3PY        -0.00049   0.00094  -0.00189  -0.00107  -0.00058
  40        3PZ        -0.00028   0.00066  -0.00186  -0.00072  -0.00039
  41 5   H  1S          0.00876  -0.01705   0.01852   0.01942  -0.00020
  42        2S          0.01019  -0.01922   0.02341   0.03239  -0.00392
  43        3PX        -0.00060   0.00116  -0.00296  -0.00169  -0.00117
  44        3PY         0.00004  -0.00003  -0.00112  -0.00079  -0.00036
  45        3PZ        -0.00036   0.00077  -0.00150  -0.00072  -0.00022
  46 6   C  1S          0.00979  -0.01742  -0.04965   0.02725   0.01811
  47        2S         -0.01942   0.03424   0.09568  -0.05233  -0.03494
  48        2PX         0.05150  -0.09817  -0.20968   0.11608   0.07230
  49        2PY        -0.03077   0.05912   0.12361  -0.06183  -0.04219
  50        2PZ        -0.01797   0.03956   0.07931  -0.04451  -0.02728
  51        3S          0.01801  -0.01818   0.06804  -0.03356  -0.01612
  52        3PX         0.00658  -0.01865  -0.09664   0.03684   0.01056
  53        3PY        -0.00431   0.01278   0.04578  -0.04276  -0.02267
  54        3PZ        -0.00275   0.01011   0.01941  -0.01962  -0.03855
  55        4XX        -0.00487   0.00828   0.00334  -0.00943  -0.00568
  56        4YY         0.00016  -0.00090   0.00131   0.00603  -0.00211
  57        4ZZ         0.00113  -0.00319  -0.00446   0.00346   0.00892
  58        4XY         0.00479  -0.00861  -0.01534   0.00411   0.00518
  59        4XZ         0.00336  -0.00582  -0.00900   0.00490  -0.00261
  60        4YZ        -0.00189   0.00330   0.00558  -0.00231   0.00195
  61 7   H  1S          0.00876  -0.01705  -0.01851   0.01943  -0.00019
  62        2S          0.01019  -0.01922  -0.02339   0.03240  -0.00392
  63        3PX         0.00060  -0.00116  -0.00296   0.00169   0.00117
  64        3PY         0.00004  -0.00003   0.00112  -0.00079  -0.00036
  65        3PZ        -0.00036   0.00077   0.00150  -0.00072  -0.00022
  66 8   H  1S          0.00742  -0.01415  -0.03740   0.00761   0.00136
  67        2S          0.00821  -0.01506  -0.06244   0.00888   0.00737
  68        3PX         0.00023  -0.00055  -0.00238   0.00109   0.00075
  69        3PY        -0.00049   0.00094   0.00189  -0.00107  -0.00058
  70        3PZ        -0.00028   0.00066   0.00186  -0.00072  -0.00039
  71 9   H  1S          0.00649  -0.01779  -0.02204   0.01519   0.02453
  72        2S          0.00739  -0.01782  -0.03593   0.01960   0.04202
  73        3PX         0.00045  -0.00100  -0.00297   0.00157   0.00115
  74        3PY        -0.00030   0.00062   0.00140  -0.00088  -0.00036
  75        3PZ         0.00019  -0.00048   0.00005  -0.00014  -0.00013
  76 10  C  1S          0.01080  -0.01929  -0.00001  -0.06647   0.02670
  77        2S         -0.02188   0.03893   0.00001   0.14880  -0.06432
  78        2PX         0.00000  -0.00001   0.00810  -0.00003  -0.00001
  79        2PY         0.05616  -0.10603  -0.00004  -0.27975   0.13087
  80        2PZ        -0.01477   0.02587  -0.00001   0.11395   0.06224
  81        3S          0.02049  -0.02123   0.00002   0.14104  -0.06307
  82        3PX         0.00000   0.00000  -0.01237  -0.00001  -0.00001
  83        3PY         0.00172  -0.01176  -0.00002  -0.12960   0.06847
  84        3PZ         0.00081  -0.00002  -0.00001   0.05482   0.02866
  85        4XX         0.00332  -0.00648   0.00000  -0.01094   0.00094
  86        4YY        -0.00652   0.01002   0.00000   0.00884  -0.01166
  87        4ZZ        -0.00002  -0.00079   0.00000   0.00064   0.00887
  88        4XY         0.00000   0.00000  -0.01590   0.00000   0.00000
  89        4XZ         0.00000   0.00000   0.00290   0.00000   0.00000
  90        4YZ         0.00311  -0.00470   0.00000  -0.00974  -0.00698
  91 11  H  1S         -0.05497   0.09992   0.00001   0.00359   0.24280
  92        2S         -0.00933   0.02355   0.00001   0.00316   0.15465
  93        3PX         0.00000   0.00000   0.00609   0.00000   0.00000
  94        3PY         0.00007  -0.00019   0.00000   0.00522   0.00238
  95        3PZ         0.00579  -0.00966   0.00000   0.00007  -0.01213
  96 12  H  1S          0.00805  -0.01671  -0.02061  -0.03496   0.01227
  97        2S          0.00627  -0.01225  -0.03775  -0.03953   0.00808
  98        3PX        -0.00048   0.00084  -0.00038   0.00163  -0.00105
  99        3PY         0.00045  -0.00057  -0.00024  -0.00282   0.00104
 100        3PZ        -0.00012   0.00013   0.00019   0.00151   0.00132
 101 13  H  1S          0.00805  -0.01671   0.02061  -0.03496   0.01228
 102        2S          0.00627  -0.01224   0.03774  -0.03953   0.00810
 103        3PX         0.00048  -0.00084  -0.00038  -0.00163   0.00105
 104        3PY         0.00045  -0.00057   0.00024  -0.00282   0.00104
 105        3PZ        -0.00012   0.00013  -0.00019   0.00151   0.00133
                           6         7         8         9        10
   6        3S          0.39467
   7        3PX        -0.00001   0.14866
   8        3PY        -0.03896  -0.00001   0.06761
   9        3PZ        -0.00635   0.00001   0.04592   0.14096
  10        4XX         0.00409   0.00000  -0.00932  -0.00929   0.00233
  11        4YY        -0.00539   0.00000   0.00634  -0.00446  -0.00124
  12        4ZZ         0.00494   0.00000   0.00289   0.01257  -0.00090
  13        4XY         0.00000  -0.01023   0.00000   0.00000   0.00000
  14        4XZ         0.00000  -0.00819   0.00000   0.00000   0.00000
  15        4YZ         0.00436   0.00000  -0.00327   0.00512   0.00024
  16 2   C  1S          0.00588   0.01189   0.00479   0.00771  -0.00504
  17        2S         -0.00177  -0.02838  -0.01299  -0.01544   0.00783
  18        2PX         0.15602  -0.12443  -0.06620  -0.06174   0.00305
  19        2PY         0.08722  -0.08333  -0.02238  -0.03257   0.01169
  20        2PZ         0.03341  -0.06130  -0.03082  -0.01696   0.00837
  21        3S         -0.07103  -0.00742  -0.00092   0.00085   0.00763
  22        3PX         0.03670  -0.05431  -0.01968  -0.01185  -0.00015
  23        3PY         0.02314  -0.03187  -0.01447  -0.01648   0.00739
  24        3PZ         0.00185  -0.01822  -0.01766  -0.02278   0.00503
  25        4XX         0.01105  -0.00308  -0.00463  -0.00435   0.00115
  26        4YY        -0.00355  -0.00068   0.00153  -0.00067  -0.00036
  27        4ZZ        -0.00244   0.00354   0.00324   0.00550  -0.00086
  28        4XY         0.01188  -0.00893  -0.00277  -0.00413   0.00011
  29        4XZ         0.00867  -0.00522  -0.00201   0.00083  -0.00003
  30        4YZ         0.00476  -0.00380  -0.00028   0.00090   0.00036
  31 3   H  1S         -0.02828   0.03341   0.02057   0.01802  -0.00361
  32        2S         -0.01648   0.03173   0.02013   0.02646  -0.00497
  33        3PX         0.00175  -0.00167  -0.00084  -0.00094   0.00000
  34        3PY         0.00101  -0.00078  -0.00021  -0.00031   0.00014
  35        3PZ        -0.00183   0.00146   0.00068   0.00020   0.00000
  36 4   H  1S         -0.05102   0.02630   0.01369   0.01005   0.00734
  37        2S         -0.03522   0.03468   0.01008   0.01000   0.00457
  38        3PX        -0.00124  -0.00089   0.00006  -0.00006   0.00050
  39        3PY         0.00252  -0.00155  -0.00075  -0.00073  -0.00004
  40        3PZ         0.00152  -0.00155  -0.00075  -0.00047  -0.00006
  41 5   H  1S         -0.05259   0.02483   0.00552   0.00710  -0.00269
  42        2S         -0.04251   0.01914   0.00901   0.00271  -0.00343
  43        3PX         0.00182  -0.00176  -0.00102  -0.00094   0.00002
  44        3PY        -0.00214   0.00034  -0.00025   0.00018   0.00009
  45        3PZ         0.00159  -0.00151  -0.00047  -0.00031   0.00014
  46 6   C  1S          0.00589  -0.01188   0.00480   0.00771  -0.00504
  47        2S         -0.00178   0.02837  -0.01300  -0.01543   0.00782
  48        2PX        -0.15597  -0.12439   0.06624   0.06171  -0.00304
  49        2PY         0.08728   0.08334  -0.02243  -0.03261   0.01168
  50        2PZ         0.03342   0.06133  -0.03078  -0.01695   0.00837
  51        3S         -0.07104   0.00742  -0.00091   0.00087   0.00763
  52        3PX        -0.03668  -0.05429   0.01970   0.01182   0.00015
  53        3PY         0.02316   0.03187  -0.01449  -0.01651   0.00739
  54        3PZ         0.00185   0.01824  -0.01763  -0.02277   0.00502
  55        4XX         0.01105   0.00307  -0.00463  -0.00435   0.00115
  56        4YY        -0.00354   0.00068   0.00153  -0.00067  -0.00036
  57        4ZZ        -0.00244  -0.00354   0.00323   0.00550  -0.00086
  58        4XY        -0.01188  -0.00893   0.00278   0.00413  -0.00011
  59        4XZ        -0.00867  -0.00522   0.00201  -0.00083   0.00003
  60        4YZ         0.00476   0.00381  -0.00029   0.00090   0.00036
  61 7   H  1S         -0.05260  -0.02482   0.00555   0.00713  -0.00270
  62        2S         -0.04252  -0.01912   0.00904   0.00273  -0.00343
  63        3PX        -0.00182  -0.00176   0.00102   0.00094  -0.00002
  64        3PY        -0.00214  -0.00034  -0.00025   0.00018   0.00009
  65        3PZ         0.00159   0.00150  -0.00047  -0.00031   0.00014
  66 8   H  1S         -0.05101  -0.02628   0.01371   0.01002   0.00734
  67        2S         -0.03520  -0.03467   0.01010   0.00997   0.00458
  68        3PX         0.00124  -0.00089  -0.00006   0.00006  -0.00050
  69        3PY         0.00252   0.00155  -0.00075  -0.00073  -0.00004
  70        3PZ         0.00152   0.00155  -0.00076  -0.00047  -0.00006
  71 9   H  1S         -0.02828  -0.03343   0.02054   0.01801  -0.00360
  72        2S         -0.01648  -0.03175   0.02011   0.02646  -0.00497
  73        3PX        -0.00175  -0.00167   0.00084   0.00094   0.00000
  74        3PY         0.00102   0.00078  -0.00021  -0.00031   0.00014
  75        3PZ        -0.00183  -0.00146   0.00068   0.00021   0.00000
  76 10  C  1S          0.00460  -0.00001  -0.01155   0.01040   0.00326
  77        2S         -0.01047   0.00001   0.03256  -0.02598  -0.00788
  78        2PX         0.00000  -0.03694  -0.00001  -0.00002   0.00001
  79        2PY        -0.06914  -0.00001  -0.10487   0.06881   0.01135
  80        2PZ         0.01313  -0.00002   0.05648   0.04371  -0.00920
  81        3S         -0.07727   0.00001   0.02914  -0.02404  -0.00887
  82        3PX         0.00001  -0.02829  -0.00001  -0.00001   0.00000
  83        3PY         0.01498  -0.00001  -0.04605   0.03452   0.00512
  84        3PZ        -0.00937  -0.00001   0.02664   0.02094  -0.00468
  85        4XX        -0.00643   0.00000  -0.00505   0.00043   0.00065
  86        4YY         0.00909   0.00000   0.00202  -0.00694  -0.00005
  87        4ZZ         0.00065   0.00000   0.00233   0.00521  -0.00034
  88        4XY         0.00000  -0.01198   0.00000   0.00000   0.00000
  89        4XZ         0.00000   0.00211   0.00000   0.00000   0.00000
  90        4YZ        -0.00370   0.00000  -0.00469  -0.00475   0.00082
  91 11  H  1S          0.13307   0.00000   0.03483   0.14372  -0.00853
  92        2S          0.04365   0.00000   0.02416   0.09201  -0.00669
  93        3PX         0.00000   0.00354   0.00000   0.00000   0.00000
  94        3PY        -0.00103   0.00000   0.00248   0.00178  -0.00043
  95        3PZ        -0.01197   0.00000  -0.00164  -0.00700   0.00038
  96 12  H  1S         -0.02269  -0.03289  -0.02192   0.00865   0.00112
  97        2S         -0.00990  -0.03257  -0.01742   0.00396   0.00235
  98        3PX         0.00138   0.00062   0.00128  -0.00076   0.00001
  99        3PY         0.00038   0.00060  -0.00070   0.00037   0.00014
 100        3PZ        -0.00006   0.00007   0.00080   0.00090  -0.00014
 101 13  H  1S         -0.02270   0.03290  -0.02192   0.00866   0.00111
 102        2S         -0.00990   0.03257  -0.01743   0.00397   0.00235
 103        3PX        -0.00138   0.00062  -0.00129   0.00076  -0.00001
 104        3PY         0.00038  -0.00060  -0.00070   0.00037   0.00014
 105        3PZ        -0.00007  -0.00007   0.00080   0.00090  -0.00014
                          11        12        13        14        15
  11        4YY         0.00232
  12        4ZZ        -0.00085   0.00156
  13        4XY         0.00000   0.00000   0.00127
  14        4XZ         0.00000   0.00000   0.00062   0.00097
  15        4YZ        -0.00118   0.00082   0.00000   0.00000   0.00092
  16 2   C  1S          0.00055   0.00121  -0.00453  -0.00327  -0.00130
  17        2S         -0.00191  -0.00281   0.00787   0.00557   0.00216
  18        2PX        -0.00146  -0.00109   0.01059   0.00919   0.00349
  19        2PY        -0.01118  -0.00020  -0.00070   0.00616   0.00050
  20        2PZ         0.00142  -0.00800   0.00508  -0.00468  -0.00379
  21        3S         -0.00244  -0.00270   0.00763   0.00549   0.00161
  22        3PX        -0.00055   0.00052   0.00553   0.00479   0.00170
  23        3PY        -0.00720  -0.00021  -0.00114   0.00308   0.00070
  24        3PZ         0.00167  -0.00572   0.00187  -0.00348  -0.00282
  25        4XX        -0.00064  -0.00037  -0.00010  -0.00008   0.00003
  26        4YY         0.00095  -0.00050   0.00031  -0.00027  -0.00045
  27        4ZZ        -0.00027   0.00096  -0.00026   0.00031   0.00046
  28        4XY         0.00007  -0.00009   0.00073   0.00070   0.00008
  29        4XZ        -0.00021   0.00027   0.00047   0.00040   0.00030
  30        4YZ        -0.00057   0.00022  -0.00001   0.00025   0.00012
  31 3   H  1S         -0.00189   0.00536  -0.00050   0.00496   0.00374
  32        2S         -0.00180   0.00594  -0.00188   0.00269   0.00327
  33        3PX        -0.00003   0.00002   0.00015   0.00016   0.00008
  34        3PY        -0.00019   0.00005  -0.00003   0.00012   0.00004
  35        3PZ        -0.00009   0.00014   0.00010   0.00030   0.00018
  36 4   H  1S         -0.00332  -0.00261  -0.00261  -0.00268  -0.00168
  37        2S         -0.00257  -0.00148  -0.00415  -0.00384  -0.00146
  38        3PX        -0.00022  -0.00017   0.00011   0.00005  -0.00004
  39        3PY        -0.00008   0.00007  -0.00002   0.00010   0.00004
  40        3PZ         0.00009  -0.00006   0.00011  -0.00003  -0.00003
  41 5   H  1S          0.00745  -0.00330   0.00462  -0.00259  -0.00104
  42        2S          0.00667  -0.00261   0.00220  -0.00243  -0.00177
  43        3PX         0.00003  -0.00004   0.00016   0.00012   0.00005
  44        3PY         0.00023  -0.00020   0.00036  -0.00004   0.00001
  45        3PZ        -0.00012  -0.00004  -0.00004  -0.00002  -0.00005
  46 6   C  1S          0.00055   0.00121   0.00453   0.00327  -0.00130
  47        2S         -0.00191  -0.00281  -0.00787  -0.00557   0.00216
  48        2PX         0.00145   0.00109   0.01059   0.00919  -0.00349
  49        2PY        -0.01118  -0.00020   0.00069  -0.00616   0.00049
  50        2PZ         0.00143  -0.00800  -0.00508   0.00468  -0.00379
  51        3S         -0.00244  -0.00270  -0.00764  -0.00549   0.00161
  52        3PX         0.00055  -0.00052   0.00553   0.00479  -0.00170
  53        3PY        -0.00720  -0.00021   0.00114  -0.00308   0.00069
  54        3PZ         0.00167  -0.00572  -0.00187   0.00348  -0.00282
  55        4XX        -0.00064  -0.00037   0.00010   0.00008   0.00003
  56        4YY         0.00096  -0.00050  -0.00031   0.00027  -0.00045
  57        4ZZ        -0.00028   0.00096   0.00026  -0.00031   0.00046
  58        4XY        -0.00007   0.00009   0.00073   0.00070  -0.00008
  59        4XZ         0.00021  -0.00027   0.00047   0.00040  -0.00030
  60        4YZ        -0.00057   0.00022   0.00001  -0.00025   0.00012
  61 7   H  1S          0.00745  -0.00330  -0.00462   0.00258  -0.00104
  62        2S          0.00668  -0.00260  -0.00220   0.00242  -0.00176
  63        3PX        -0.00003   0.00004   0.00016   0.00012  -0.00005
  64        3PY         0.00023  -0.00020  -0.00036   0.00004   0.00001
  65        3PZ        -0.00012  -0.00004   0.00004   0.00002  -0.00005
  66 8   H  1S         -0.00331  -0.00262   0.00261   0.00268  -0.00169
  67        2S         -0.00257  -0.00149   0.00415   0.00385  -0.00146
  68        3PX         0.00022   0.00017   0.00011   0.00005   0.00004
  69        3PY        -0.00008   0.00007   0.00002  -0.00010   0.00004
  70        3PZ         0.00009  -0.00005  -0.00011   0.00003  -0.00003
  71 9   H  1S         -0.00190   0.00536   0.00051  -0.00496   0.00374
  72        2S         -0.00181   0.00594   0.00189  -0.00269   0.00327
  73        3PX         0.00003  -0.00002   0.00015   0.00016  -0.00008
  74        3PY        -0.00019   0.00005   0.00003  -0.00012   0.00004
  75        3PZ        -0.00009   0.00014  -0.00010  -0.00030   0.00018
  76 10  C  1S         -0.00885   0.00203   0.00000   0.00000   0.00467
  77        2S          0.01807  -0.00538   0.00000   0.00000  -0.00989
  78        2PX         0.00000   0.00000   0.00923  -0.00171   0.00000
  79        2PY        -0.02232   0.00905   0.00000   0.00000   0.01413
  80        2PZ         0.00623   0.00314   0.00000   0.00000  -0.00229
  81        3S          0.01850  -0.00617   0.00000   0.00000  -0.00938
  82        3PX         0.00000   0.00000   0.00518  -0.00029   0.00000
  83        3PY        -0.01118   0.00552   0.00000   0.00000   0.00712
  84        3PZ         0.00337   0.00127   0.00000   0.00000  -0.00111
  85        4XX        -0.00068   0.00004   0.00000   0.00000   0.00035
  86        4YY         0.00103  -0.00071   0.00000   0.00000  -0.00072
  87        4ZZ        -0.00044   0.00057   0.00000   0.00000   0.00036
  88        4XY         0.00000   0.00000   0.00122   0.00059   0.00000
  89        4XZ         0.00000   0.00000  -0.00020  -0.00006   0.00000
  90        4YZ        -0.00058  -0.00035   0.00000   0.00000   0.00021
  91 11  H  1S         -0.00680   0.01538   0.00000   0.00000   0.00734
  92        2S         -0.00529   0.01099   0.00000   0.00000   0.00561
  93        3PX         0.00000   0.00000  -0.00026  -0.00021   0.00000
  94        3PY         0.00029   0.00013   0.00000   0.00000  -0.00011
  95        3PZ         0.00031  -0.00077   0.00000   0.00000  -0.00036
  96 12  H  1S         -0.00051   0.00059   0.00554   0.00018   0.00073
  97        2S         -0.00272   0.00051   0.00387   0.00130   0.00138
  98        3PX        -0.00006  -0.00005  -0.00017   0.00004  -0.00002
  99        3PY        -0.00031   0.00009  -0.00017   0.00004   0.00018
 100        3PZ         0.00007   0.00007   0.00001   0.00000  -0.00002
 101 13  H  1S         -0.00051   0.00059  -0.00554  -0.00018   0.00073
 102        2S         -0.00272   0.00052  -0.00387  -0.00129   0.00138
 103        3PX         0.00006   0.00005  -0.00017   0.00004   0.00002
 104        3PY        -0.00031   0.00009   0.00017  -0.00004   0.00018
 105        3PZ         0.00007   0.00007  -0.00001   0.00000  -0.00002
                          16        17        18        19        20
  16 2   C  1S          2.05951
  17        2S         -0.08539   0.26439
  18        2PX         0.00554  -0.00527   0.35145
  19        2PY         0.00538  -0.01055  -0.02032   0.37391
  20        2PZ         0.00193   0.00020  -0.01196  -0.00928   0.37910
  21        3S         -0.17467   0.26888  -0.05057  -0.03809  -0.02331
  22        3PX        -0.00410   0.00552   0.14935  -0.03382  -0.02520
  23        3PY        -0.00438   0.00512  -0.03689   0.20617  -0.02301
  24        3PZ         0.00110  -0.00008  -0.01755  -0.01986   0.19915
  25        4XX        -0.00279  -0.00086   0.00011   0.01716   0.01244
  26        4YY        -0.00335   0.00056   0.00116  -0.01533   0.01456
  27        4ZZ        -0.00295  -0.00058   0.00025  -0.00127  -0.02566
  28        4XY        -0.00033   0.00054   0.02223   0.00135  -0.00159
  29        4XZ        -0.00018   0.00026   0.01410  -0.00147  -0.00021
  30        4YZ         0.00018  -0.00050  -0.00157   0.01591  -0.00024
  31 3   H  1S         -0.05384   0.09784  -0.00313  -0.00705  -0.25510
  32        2S         -0.00982   0.02580  -0.00045  -0.00696  -0.20422
  33        3PX        -0.00015   0.00053   0.00519  -0.00036  -0.00227
  34        3PY        -0.00021   0.00041  -0.00023   0.00518  -0.00237
  35        3PZ        -0.00557   0.00949  -0.00092  -0.00086  -0.01142
  36 4   H  1S         -0.05286   0.09658  -0.20915   0.11964   0.08819
  37        2S         -0.01010   0.02560  -0.16991   0.09262   0.07064
  38        3PX        -0.00462   0.00796  -0.00722   0.00651   0.00495
  39        3PY         0.00262  -0.00432   0.00470   0.00263  -0.00190
  40        3PZ         0.00187  -0.00308   0.00439  -0.00241   0.00382
  41 5   H  1S         -0.05508   0.10442   0.00633  -0.23677   0.09265
  42        2S         -0.01378   0.03539   0.00391  -0.16509   0.06515
  43        3PX         0.00006   0.00016   0.00519  -0.00146   0.00039
  44        3PY        -0.00532   0.00934  -0.00035  -0.00973   0.00556
  45        3PZ         0.00197  -0.00339  -0.00008   0.00495   0.00371
  46 6   C  1S         -0.00338   0.00489   0.01179  -0.00207  -0.00180
  47        2S          0.00489  -0.00975  -0.02102   0.00129  -0.00031
  48        2PX        -0.01179   0.02102   0.04542   0.00569   0.00310
  49        2PY        -0.00207   0.00129  -0.00570  -0.00761   0.00702
  50        2PZ        -0.00180  -0.00032  -0.00309   0.00702  -0.01036
  51        3S          0.01181  -0.01759  -0.06706   0.02921   0.03023
  52        3PX        -0.01171   0.01805   0.05345  -0.00122  -0.00351
  53        3PY        -0.00397   0.00497   0.00077  -0.00199   0.01691
  54        3PZ        -0.00484   0.00560   0.00670   0.01705  -0.00601
  55        4XX        -0.00135   0.00230   0.00705   0.00204   0.00128
  56        4YY         0.00016  -0.00074  -0.00300  -0.00130  -0.00100
  57        4ZZ         0.00023  -0.00065  -0.00203  -0.00109  -0.00124
  58        4XY        -0.00103   0.00189   0.00454   0.00008   0.00017
  59        4XZ        -0.00063   0.00118   0.00273   0.00034  -0.00012
  60        4YZ         0.00000  -0.00010  -0.00066  -0.00084  -0.00068
  61 7   H  1S          0.00346  -0.00581  -0.01123   0.00382  -0.00573
  62        2S          0.00147  -0.00329  -0.00811  -0.00575  -0.00179
  63        3PX         0.00007   0.00012   0.00041   0.00080   0.00012
  64        3PY         0.00029  -0.00047  -0.00068   0.00034  -0.00030
  65        3PZ         0.00000   0.00002   0.00001  -0.00010   0.00004
  66 8   H  1S         -0.00766   0.01229   0.02765   0.00633   0.00414
  67        2S         -0.00717   0.01359   0.04130   0.00748   0.00396
  68        3PX         0.00001  -0.00001   0.00017  -0.00011  -0.00001
  69        3PY         0.00000  -0.00004  -0.00023  -0.00027  -0.00016
  70        3PZ         0.00013  -0.00025  -0.00054  -0.00027  -0.00040
  71 9   H  1S          0.00372  -0.00464  -0.01055  -0.00501   0.00339
  72        2S          0.00103  -0.00145  -0.00362  -0.00363  -0.00670
  73        3PX         0.00000   0.00020   0.00056   0.00038   0.00078
  74        3PY         0.00007  -0.00005  -0.00012   0.00008   0.00015
  75        3PZ         0.00024  -0.00031  -0.00051  -0.00005   0.00042
  76 10  C  1S         -0.00322   0.00546   0.00433   0.01254  -0.00084
  77        2S          0.00641  -0.01333  -0.01169  -0.02919   0.00357
  78        2PX        -0.00657   0.01227   0.00009   0.01555   0.00413
  79        2PY        -0.00797   0.01533   0.02200   0.03043  -0.00489
  80        2PZ         0.00728  -0.01393  -0.03202  -0.03515  -0.01621
  81        3S          0.01086  -0.01757  -0.01840  -0.07487   0.01032
  82        3PX        -0.00706   0.01043   0.00323   0.01834   0.00731
  83        3PY        -0.00569   0.00825   0.02236   0.03192  -0.01301
  84        3PZ         0.00293  -0.00552  -0.01750  -0.02661  -0.00828
  85        4XX        -0.00047   0.00086  -0.00005   0.00189   0.00112
  86        4YY        -0.00023   0.00059   0.00276   0.00185   0.00189
  87        4ZZ         0.00010  -0.00063  -0.00183  -0.00160  -0.00174
  88        4XY        -0.00189   0.00379   0.00817   0.00783   0.00173
  89        4XZ         0.00037  -0.00050  -0.00139  -0.00086  -0.00146
  90        4YZ        -0.00068   0.00131   0.00236   0.00237   0.00059
  91 11  H  1S          0.00554  -0.01128  -0.00615  -0.00196  -0.02321
  92        2S          0.00637  -0.01201  -0.00896  -0.00531  -0.05377
  93        3PX         0.00041  -0.00110  -0.00326  -0.00144  -0.00168
  94        3PY         0.00030  -0.00072  -0.00177  -0.00169  -0.00142
  95        3PZ        -0.00004  -0.00006  -0.00126  -0.00079   0.00011
  96 12  H  1S         -0.00596   0.01114   0.01638   0.01984   0.00547
  97        2S         -0.00534   0.01181   0.02577   0.02897   0.00705
  98        3PX         0.00006  -0.00012  -0.00009  -0.00011   0.00000
  99        3PY        -0.00002   0.00004   0.00026   0.00047  -0.00006
 100        3PZ         0.00011  -0.00020  -0.00062  -0.00060  -0.00055
 101 13  H  1S          0.00459  -0.00910  -0.00926  -0.01516  -0.00352
 102        2S          0.00205  -0.00488  -0.02237  -0.00474   0.00092
 103        3PX         0.00026  -0.00038   0.00065  -0.00078  -0.00010
 104        3PY        -0.00007   0.00034   0.00072   0.00014   0.00020
 105        3PZ         0.00013  -0.00024  -0.00053  -0.00055  -0.00013
                          21        22        23        24        25
  21        3S          0.30256
  22        3PX        -0.00303   0.07087
  23        3PY        -0.00192  -0.02749   0.11942
  24        3PZ        -0.00926  -0.01816  -0.01894   0.10848
  25        4XX        -0.00399  -0.00265   0.00887   0.00605   0.00146
  26        4YY         0.00077   0.00084  -0.00954   0.00835  -0.00031
  27        4ZZ         0.00152   0.00198   0.00045  -0.01393  -0.00100
  28        4XY        -0.00261   0.00934  -0.00115  -0.00169   0.00006
  29        4XZ        -0.00155   0.00621  -0.00197  -0.00100  -0.00003
  30        4YZ        -0.00173  -0.00165   0.00871  -0.00105   0.00071
  31 3   H  1S          0.11877   0.01680   0.01275  -0.13468  -0.00931
  32        2S          0.04007   0.01313   0.00676  -0.10879  -0.00746
  33        3PX        -0.00006   0.00232  -0.00045  -0.00134  -0.00007
  34        3PY         0.00022  -0.00030   0.00299  -0.00145   0.00016
  35        3PZ         0.01071   0.00056   0.00056  -0.00593  -0.00044
  36 4   H  1S          0.11008  -0.09937   0.08116   0.04883   0.00800
  37        2S          0.03405  -0.08311   0.06172   0.03974   0.00667
  38        3PX         0.00830  -0.00350   0.00418   0.00254   0.00043
  39        3PY        -0.00517   0.00177   0.00100  -0.00125   0.00008
  40        3PZ        -0.00379   0.00174  -0.00196   0.00194   0.00003
  41 5   H  1S          0.11916   0.01680  -0.13095   0.05834  -0.00822
  42        2S          0.04446   0.01036  -0.09312   0.04147  -0.00584
  43        3PX        -0.00053   0.00223  -0.00119   0.00009  -0.00003
  44        3PY         0.01005   0.00049  -0.00517   0.00329  -0.00028
  45        3PZ        -0.00409  -0.00064   0.00240   0.00173   0.00036
  46 6   C  1S          0.01181   0.01171  -0.00397  -0.00483  -0.00135
  47        2S         -0.01758  -0.01804   0.00496   0.00561   0.00230
  48        2PX         0.06707   0.05345  -0.00078  -0.00669  -0.00705
  49        2PY         0.02915   0.00118  -0.00198   0.01706   0.00204
  50        2PZ         0.03030   0.00356   0.01689  -0.00602   0.00128
  51        3S         -0.01712  -0.03561   0.02275   0.02095   0.00301
  52        3PX         0.03563   0.03725  -0.00409  -0.00515  -0.00285
  53        3PY         0.02273   0.00407  -0.00004   0.01643   0.00115
  54        3PZ         0.02099   0.00518   0.01641  -0.00311   0.00096
  55        4XX         0.00301   0.00285   0.00115   0.00096   0.00038
  56        4YY        -0.00048  -0.00133  -0.00027  -0.00068  -0.00014
  57        4ZZ        -0.00225  -0.00080  -0.00130  -0.00104  -0.00023
  58        4XY         0.00491   0.00428  -0.00002  -0.00057  -0.00047
  59        4XZ         0.00314   0.00247   0.00010   0.00003  -0.00029
  60        4YZ         0.00125   0.00009  -0.00038  -0.00004   0.00001
  61 7   H  1S         -0.01806  -0.00931   0.00537  -0.00832  -0.00030
  62        2S         -0.01000  -0.00515  -0.00184  -0.00428  -0.00094
  63        3PX         0.00078   0.00063   0.00036  -0.00006  -0.00007
  64        3PY        -0.00091  -0.00057   0.00046  -0.00030   0.00004
  65        3PZ         0.00078   0.00020   0.00006   0.00012   0.00001
  66 8   H  1S          0.04888   0.02936   0.00594   0.00338  -0.00187
  67        2S          0.04221   0.03344   0.00425   0.00094  -0.00180
  68        3PX        -0.00156  -0.00042  -0.00035  -0.00026   0.00001
  69        3PY        -0.00043  -0.00038  -0.00017   0.00003   0.00006
  70        3PZ        -0.00050  -0.00048  -0.00001  -0.00023   0.00004
  71 9   H  1S         -0.02654  -0.00963  -0.00967   0.00291  -0.00046
  72        2S         -0.01742  -0.00311  -0.00805  -0.00511  -0.00111
  73        3PX         0.00098   0.00072   0.00017   0.00024  -0.00006
  74        3PY         0.00013  -0.00005   0.00003   0.00025   0.00004
  75        3PZ        -0.00143  -0.00060  -0.00028   0.00039   0.00002
  76 10  C  1S          0.00996   0.00363   0.01174  -0.00282   0.00087
  77        2S         -0.01826  -0.00742  -0.02348   0.00683  -0.00204
  78        2PX         0.01537   0.00138   0.02265  -0.00596   0.00081
  79        2PY         0.03571   0.01843   0.03713  -0.01060   0.00257
  80        2PZ        -0.01378  -0.00920  -0.02544  -0.01210  -0.00370
  81        3S         -0.01421  -0.00515  -0.04501   0.01252  -0.00458
  82        3PX         0.00988   0.00141   0.01649  -0.00132   0.00091
  83        3PY         0.01021   0.01083   0.02414  -0.01258   0.00216
  84        3PZ        -0.00358  -0.00416  -0.01664  -0.00546  -0.00239
  85        4XX         0.00222   0.00031   0.00210   0.00065   0.00016
  86        4YY        -0.00167  -0.00011  -0.00017   0.00149   0.00026
  87        4ZZ        -0.00022  -0.00021  -0.00089  -0.00147  -0.00021
  88        4XY         0.00282   0.00377   0.00445  -0.00062   0.00022
  89        4XZ        -0.00022  -0.00059  -0.00036  -0.00056  -0.00005
  90        4YZ         0.00158   0.00076   0.00198   0.00082   0.00024
  91 11  H  1S         -0.01995   0.00216  -0.00799  -0.03202  -0.00108
  92        2S         -0.01265   0.00288  -0.00426  -0.03940  -0.00265
  93        3PX        -0.00064  -0.00148  -0.00039  -0.00059  -0.00005
  94        3PY        -0.00049  -0.00045  -0.00109  -0.00083  -0.00021
  95        3PZ         0.00127  -0.00037   0.00027   0.00123  -0.00009
  96 12  H  1S          0.01501   0.00938   0.02030  -0.00313   0.00098
  97        2S          0.01358   0.01287   0.02043  -0.00116   0.00132
  98        3PX        -0.00036  -0.00014  -0.00055   0.00021  -0.00002
  99        3PY        -0.00005   0.00006   0.00014   0.00000   0.00004
 100        3PZ        -0.00009  -0.00014  -0.00034  -0.00036  -0.00007
 101 13  H  1S         -0.00480  -0.00355  -0.01056   0.00322  -0.00031
 102        2S         -0.00015  -0.01047  -0.00096   0.00431   0.00056
 103        3PX        -0.00024   0.00038  -0.00056   0.00006  -0.00003
 104        3PY         0.00046   0.00039   0.00042  -0.00011   0.00003
 105        3PZ        -0.00022  -0.00014  -0.00041  -0.00013  -0.00006
                          26        27        28        29        30
  26        4YY         0.00132
  27        4ZZ        -0.00095   0.00189
  28        4XY         0.00002   0.00005   0.00150
  29        4XZ         0.00004   0.00010   0.00090   0.00067
  30        4YZ        -0.00067   0.00001   0.00002  -0.00003   0.00072
  31 3   H  1S         -0.00932   0.01748   0.00061   0.00013  -0.00023
  32        2S         -0.00763   0.01442   0.00039   0.00035  -0.00005
  33        3PX        -0.00006   0.00014   0.00033   0.00020  -0.00003
  34        3PY        -0.00030   0.00014   0.00003  -0.00002   0.00022
  35        3PZ        -0.00039   0.00076  -0.00001  -0.00003  -0.00004
  36 4   H  1S         -0.00204  -0.00658  -0.01241  -0.00847   0.00542
  37        2S         -0.00179  -0.00522  -0.01042  -0.00697   0.00421
  38        3PX        -0.00008  -0.00037  -0.00040  -0.00028   0.00029
  39        3PY        -0.00017   0.00012   0.00030   0.00018   0.00010
  40        3PZ         0.00025  -0.00024   0.00024   0.00018  -0.00011
  41 5   H  1S          0.01333  -0.00541  -0.00095   0.00078  -0.01014
  42        2S          0.00956  -0.00392  -0.00070   0.00030  -0.00715
  43        3PX         0.00009  -0.00003   0.00032   0.00021  -0.00007
  44        3PY         0.00060  -0.00034  -0.00007   0.00002  -0.00041
  45        3PZ        -0.00006  -0.00027   0.00001  -0.00001   0.00021
  46 6   C  1S          0.00016   0.00023   0.00103   0.00062   0.00001
  47        2S         -0.00074  -0.00065  -0.00189  -0.00118  -0.00010
  48        2PX         0.00299   0.00204   0.00454   0.00273   0.00066
  49        2PY        -0.00130  -0.00109  -0.00008  -0.00034  -0.00084
  50        2PZ        -0.00100  -0.00124  -0.00017   0.00012  -0.00068
  51        3S         -0.00048  -0.00226  -0.00491  -0.00313   0.00125
  52        3PX         0.00133   0.00080   0.00428   0.00246  -0.00009
  53        3PY        -0.00027  -0.00130   0.00002  -0.00010  -0.00038
  54        3PZ        -0.00068  -0.00105   0.00057  -0.00003  -0.00004
  55        4XX        -0.00014  -0.00023   0.00047   0.00028   0.00001
  56        4YY         0.00015  -0.00004  -0.00016  -0.00016  -0.00010
  57        4ZZ        -0.00004   0.00034  -0.00015   0.00000   0.00009
  58        4XY         0.00016   0.00015   0.00033   0.00024   0.00003
  59        4XZ         0.00016   0.00000   0.00024   0.00005  -0.00003
  60        4YZ        -0.00010   0.00009  -0.00003   0.00003  -0.00002
  61 7   H  1S          0.00066  -0.00006  -0.00100  -0.00059   0.00013
  62        2S          0.00123  -0.00025  -0.00057  -0.00052  -0.00034
  63        3PX         0.00001   0.00003   0.00006   0.00003   0.00004
  64        3PY         0.00000  -0.00001  -0.00007  -0.00003   0.00001
  65        3PZ        -0.00002  -0.00002   0.00001   0.00001  -0.00002
  66 8   H  1S          0.00074   0.00000   0.00254   0.00144   0.00000
  67        2S          0.00067   0.00011   0.00334   0.00203   0.00013
  68        3PX         0.00001   0.00001  -0.00001   0.00000   0.00001
  69        3PY        -0.00004   0.00000  -0.00003  -0.00002  -0.00001
  70        3PZ        -0.00003  -0.00001  -0.00005  -0.00003  -0.00002
  71 9   H  1S          0.00026   0.00120  -0.00089  -0.00045   0.00057
  72        2S         -0.00021   0.00200  -0.00032   0.00015   0.00067
  73        3PX         0.00006  -0.00003   0.00006   0.00004   0.00002
  74        3PY        -0.00003  -0.00001  -0.00001  -0.00001   0.00000
  75        3PZ         0.00002   0.00001  -0.00005  -0.00004   0.00002
  76 10  C  1S         -0.00169   0.00051  -0.00030   0.00051   0.00070
  77        2S          0.00403  -0.00159   0.00079  -0.00127  -0.00175
  78        2PX        -0.00269   0.00018  -0.00048  -0.00022   0.00096
  79        2PY        -0.00775   0.00314  -0.00317   0.00243   0.00218
  80        2PZ         0.00231   0.00225  -0.00073  -0.00030  -0.00073
  81        3S          0.00599  -0.00184  -0.00063  -0.00187  -0.00388
  82        3PX        -0.00146  -0.00026   0.00006   0.00003   0.00096
  83        3PY        -0.00473   0.00226  -0.00020   0.00194   0.00197
  84        3PZ         0.00148   0.00114  -0.00068  -0.00032  -0.00081
  85        4XX        -0.00026  -0.00005  -0.00020  -0.00002   0.00006
  86        4YY         0.00027  -0.00038   0.00040  -0.00001  -0.00001
  87        4ZZ        -0.00005   0.00029  -0.00012   0.00005   0.00002
  88        4XY        -0.00026  -0.00007   0.00058   0.00033   0.00036
  89        4XZ        -0.00002   0.00008  -0.00009  -0.00006  -0.00004
  90        4YZ        -0.00018  -0.00016   0.00002  -0.00003   0.00001
  91 11  H  1S         -0.00266   0.00606   0.00013   0.00401   0.00268
  92        2S         -0.00311   0.00665  -0.00057   0.00200   0.00146
  93        3PX        -0.00005   0.00010  -0.00023  -0.00014  -0.00007
  94        3PY         0.00008   0.00014  -0.00007  -0.00004  -0.00004
  95        3PZ         0.00012  -0.00022  -0.00015  -0.00030  -0.00018
  96 12  H  1S         -0.00246   0.00017   0.00011   0.00070   0.00106
  97        2S         -0.00196  -0.00013   0.00115   0.00112   0.00134
  98        3PX         0.00011  -0.00003   0.00006  -0.00001  -0.00002
  99        3PY        -0.00003   0.00002   0.00000   0.00003   0.00002
 100        3PZ         0.00001   0.00006  -0.00003  -0.00001  -0.00001
 101 13  H  1S          0.00041   0.00025  -0.00130  -0.00016  -0.00076
 102        2S         -0.00041  -0.00008  -0.00208  -0.00081  -0.00027
 103        3PX         0.00002   0.00002   0.00000   0.00004  -0.00003
 104        3PY        -0.00009   0.00002   0.00000   0.00004   0.00002
 105        3PZ         0.00004   0.00003  -0.00002   0.00000  -0.00001
                          31        32        33        34        35
  31 3   H  1S          0.20947
  32        2S          0.14885   0.11563
  33        3PX         0.00159   0.00119   0.00009
  34        3PY         0.00162   0.00118   0.00001   0.00009
  35        3PZ         0.01128   0.00712   0.00007   0.00008   0.00069
  36 4   H  1S         -0.02145  -0.03831  -0.00334   0.00134   0.00122
  37        2S         -0.03647  -0.03556  -0.00283   0.00092  -0.00087
  38        3PX        -0.00035  -0.00195  -0.00012   0.00008   0.00015
  39        3PY        -0.00052   0.00044   0.00007   0.00004  -0.00012
  40        3PZ        -0.00377  -0.00236   0.00004  -0.00006  -0.00024
  41 5   H  1S         -0.01793  -0.03366  -0.00013  -0.00359   0.00146
  42        2S         -0.02722  -0.02833  -0.00018  -0.00261  -0.00035
  43        3PX        -0.00032  -0.00027   0.00008  -0.00002  -0.00002
  44        3PY        -0.00001  -0.00180  -0.00001  -0.00015   0.00019
  45        3PZ        -0.00388  -0.00246  -0.00003   0.00004  -0.00025
  46 6   C  1S          0.00373   0.00104   0.00000   0.00007   0.00024
  47        2S         -0.00466  -0.00147  -0.00020  -0.00005  -0.00031
  48        2PX         0.01057   0.00365   0.00056   0.00012   0.00051
  49        2PY        -0.00501  -0.00362  -0.00038   0.00009  -0.00005
  50        2PZ         0.00337  -0.00672  -0.00078   0.00015   0.00042
  51        3S         -0.02654  -0.01742  -0.00097   0.00013  -0.00143
  52        3PX         0.00961   0.00311   0.00072   0.00005   0.00060
  53        3PY        -0.00969  -0.00805  -0.00016   0.00003  -0.00028
  54        3PZ         0.00289  -0.00512  -0.00024   0.00025   0.00039
  55        4XX        -0.00046  -0.00111   0.00006   0.00004   0.00002
  56        4YY         0.00026  -0.00021  -0.00006  -0.00003   0.00002
  57        4ZZ         0.00120   0.00200   0.00003  -0.00001   0.00001
  58        4XY         0.00090   0.00032   0.00006   0.00001   0.00005
  59        4XZ         0.00045  -0.00014   0.00004   0.00001   0.00004
  60        4YZ         0.00057   0.00066  -0.00002   0.00000   0.00002
  61 7   H  1S          0.00077  -0.00114  -0.00011  -0.00010  -0.00004
  62        2S         -0.00066  -0.00245  -0.00011  -0.00020  -0.00005
  63        3PX         0.00003   0.00001   0.00000   0.00001   0.00000
  64        3PY        -0.00004  -0.00007  -0.00001   0.00000  -0.00001
  65        3PZ        -0.00004  -0.00012  -0.00001   0.00000   0.00000
  66 8   H  1S          0.00243  -0.00279   0.00013   0.00014   0.00026
  67        2S          0.00281  -0.00223   0.00037   0.00016   0.00026
  68        3PX         0.00000   0.00011   0.00002   0.00000   0.00000
  69        3PY         0.00006   0.00010   0.00000   0.00000   0.00001
  70        3PZ         0.00011   0.00004  -0.00001   0.00000   0.00001
  71 9   H  1S         -0.00112   0.00718   0.00039  -0.00011  -0.00032
  72        2S          0.00718   0.01240   0.00041  -0.00001   0.00010
  73        3PX        -0.00039  -0.00041   0.00000   0.00000  -0.00002
  74        3PY        -0.00011  -0.00001   0.00000   0.00000  -0.00001
  75        3PZ        -0.00032   0.00010   0.00002  -0.00001  -0.00003
  76 10  C  1S          0.00330   0.00387   0.00006   0.00016   0.00032
  77        2S         -0.00917  -0.00977  -0.00021  -0.00053  -0.00062
  78        2PX         0.00254  -0.00209   0.00006  -0.00015   0.00032
  79        2PY         0.01483   0.01603   0.00050   0.00077   0.00065
  80        2PZ         0.00973   0.01252  -0.00046  -0.00048   0.00012
  81        3S         -0.01422  -0.01337  -0.00029  -0.00122  -0.00083
[...]
  75        3PZ         0.00000   0.00000   0.00000   0.00000   0.00059
  76 10  C  1S          0.00000   0.00000   0.00000   0.00000   0.00000
  77        2S          0.00000   0.00000   0.00000   0.00000   0.00000
  78        2PX         0.00000   0.00007   0.00000   0.00000   0.00000
  79        2PY         0.00000  -0.00002   0.00000   0.00000   0.00000
  80        2PZ         0.00000  -0.00019   0.00000   0.00000   0.00000
  81        3S         -0.00005  -0.00040   0.00000  -0.00001   0.00000
  82        3PX         0.00005   0.00056   0.00000   0.00000   0.00000
  83        3PY        -0.00021  -0.00101   0.00000  -0.00001   0.00000
  84        3PZ        -0.00020  -0.00099   0.00000   0.00000   0.00000
  85        4XX         0.00000  -0.00001   0.00000   0.00000   0.00000
  86        4YY         0.00000  -0.00001   0.00000   0.00000   0.00000
  87        4ZZ         0.00000   0.00002   0.00000   0.00000   0.00000
  88        4XY         0.00000  -0.00001   0.00000   0.00000   0.00000
  89        4XZ         0.00000   0.00000   0.00000   0.00000   0.00000
  90        4YZ         0.00000  -0.00002   0.00000   0.00000   0.00000
  91 11  H  1S          0.00000   0.00025   0.00000   0.00000   0.00000
  92        2S          0.00036   0.00273   0.00000   0.00000   0.00001
  93        3PX         0.00000   0.00000   0.00000   0.00000   0.00000
  94        3PY         0.00000  -0.00001   0.00000   0.00000   0.00000
  95        3PZ         0.00000   0.00001   0.00000   0.00000   0.00000
  96 12  H  1S          0.00000   0.00002   0.00000   0.00000   0.00000
  97        2S         -0.00001   0.00000   0.00000   0.00000   0.00000
  98        3PX         0.00000   0.00000   0.00000   0.00000   0.00000
  99        3PY         0.00000   0.00000   0.00000   0.00000   0.00000
 100        3PZ         0.00000   0.00000   0.00000   0.00000   0.00000
 101 13  H  1S          0.00000   0.00000   0.00000   0.00000   0.00000
 102        2S          0.00000  -0.00010   0.00000   0.00000   0.00000
 103        3PX         0.00000   0.00000   0.00000   0.00000   0.00000
 104        3PY         0.00000   0.00000   0.00000   0.00000   0.00000
 105        3PZ         0.00000   0.00000   0.00000   0.00000   0.00000
                          76        77        78        79        80
  76 10  C  1S          2.06504
  77        2S         -0.02454   0.33972
  78        2PX         0.00000   0.00000   0.45829
  79        2PY         0.00000   0.00000   0.00000   0.44876
  80        2PZ         0.00000   0.00000   0.00000   0.00000   0.15423
  81        3S         -0.03301   0.25943   0.00000   0.00000   0.00000
  82        3PX         0.00000   0.00000   0.14258   0.00000   0.00000
  83        3PY         0.00000   0.00000   0.00000   0.08656   0.00000
  84        3PZ         0.00000   0.00000   0.00000   0.00000   0.04690
  85        4XX        -0.00042   0.00361   0.00000   0.00000   0.00000
  86        4YY        -0.00044   0.00517   0.00000   0.00000   0.00000
  87        4ZZ         0.00019  -0.01070   0.00000   0.00000   0.00000
  88        4XY         0.00000   0.00000   0.00000   0.00000   0.00000
  89        4XZ         0.00000   0.00000   0.00000   0.00000   0.00000
  90        4YZ         0.00000   0.00000   0.00000   0.00000   0.00000
  91 11  H  1S         -0.00006   0.00103   0.00000   0.00414   0.02759
  92        2S          0.00172  -0.01852   0.00000  -0.00717   0.02698
  93        3PX         0.00000   0.00000   0.00026   0.00000   0.00000
  94        3PY        -0.00001   0.00043   0.00000   0.00011   0.00046
  95        3PZ        -0.00002   0.00065   0.00000   0.00120   0.00120
  96 12  H  1S         -0.00219   0.03526   0.07528   0.02625   0.00000
  97        2S         -0.00106   0.01443   0.02642   0.01064  -0.00001
  98        3PX        -0.00024   0.00261   0.00215   0.00197   0.00000
  99        3PY        -0.00008   0.00097   0.00195   0.00001   0.00000
 100        3PZ         0.00000   0.00000   0.00000   0.00000   0.00038
 101 13  H  1S         -0.00219   0.03526   0.07530   0.02623   0.00000
 102        2S         -0.00106   0.01444   0.02643   0.01063  -0.00001
 103        3PX        -0.00024   0.00261   0.00215   0.00197   0.00000
 104        3PY        -0.00008   0.00096   0.00195   0.00001   0.00000
 105        3PZ         0.00000   0.00000   0.00000   0.00000   0.00038
                          81        82        83        84        85
  81        3S          0.33318
  82        3PX         0.00000   0.14520
  83        3PY         0.00000   0.00000   0.06010
  84        3PZ         0.00000   0.00000   0.00000   0.04588
  85        4XX         0.00635   0.00000   0.00000   0.00000   0.00172
  86        4YY         0.00250   0.00000   0.00000   0.00000  -0.00033
  87        4ZZ        -0.01047   0.00000   0.00000   0.00000  -0.00025
  88        4XY         0.00000   0.00000   0.00000   0.00000   0.00000
  89        4XZ         0.00000   0.00000   0.00000   0.00000   0.00000
  90        4YZ         0.00000   0.00000   0.00000   0.00000   0.00000
  91 11  H  1S         -0.01271   0.00000  -0.00715   0.03102  -0.00045
  92        2S         -0.04313   0.00000  -0.01527   0.03556  -0.00083
  93        3PX         0.00000   0.00020   0.00000   0.00000   0.00000
  94        3PY         0.00035   0.00000  -0.00002   0.00023   0.00000
  95        3PZ         0.00006   0.00000   0.00007   0.00016  -0.00003
  96 12  H  1S          0.05281   0.05790   0.01134   0.00004   0.00364
  97        2S          0.02848   0.03332   0.00719   0.00001   0.00217
  98        3PX         0.00159  -0.00011   0.00031   0.00000   0.00014
  99        3PY         0.00053   0.00051   0.00004   0.00000   0.00003
 100        3PZ         0.00000   0.00000   0.00000   0.00028   0.00000
 101 13  H  1S          0.05282   0.05792   0.01133   0.00004   0.00364
 102        2S          0.02849   0.03333   0.00719   0.00001   0.00217
 103        3PX         0.00159  -0.00011   0.00031   0.00000   0.00014
 104        3PY         0.00053   0.00051   0.00004   0.00000   0.00003
 105        3PZ         0.00000   0.00000   0.00000   0.00028   0.00000
                          86        87        88        89        90
  86        4YY         0.00143
  87        4ZZ        -0.00018   0.00154
  88        4XY         0.00000   0.00000   0.00200
  89        4XZ         0.00000   0.00000   0.00000   0.00010
  90        4YZ         0.00000   0.00000   0.00000   0.00000   0.00190
  91 11  H  1S         -0.00021   0.00227   0.00000   0.00000   0.00338
  92        2S         -0.00190   0.00371   0.00000   0.00000   0.00107
  93        3PX         0.00000   0.00000   0.00000   0.00001   0.00000
  94        3PY         0.00000   0.00003   0.00000   0.00000   0.00005
  95        3PZ         0.00005   0.00009   0.00000   0.00000   0.00026
  96 12  H  1S         -0.00084  -0.00078   0.00360   0.00001   0.00000
  97        2S         -0.00108  -0.00091   0.00045   0.00000   0.00000
  98        3PX        -0.00006  -0.00005   0.00014   0.00000   0.00000
  99        3PY         0.00000  -0.00002   0.00000   0.00000   0.00000
 100        3PZ         0.00000   0.00000   0.00000   0.00000  -0.00004
 101 13  H  1S         -0.00084  -0.00078   0.00360   0.00001   0.00000
 102        2S         -0.00108  -0.00091   0.00045   0.00000   0.00000
 103        3PX        -0.00006  -0.00005   0.00014   0.00000   0.00000
 104        3PY         0.00000  -0.00002   0.00000   0.00000   0.00000
 105        3PZ         0.00000   0.00000   0.00000   0.00000  -0.00004
                          91        92        93        94        95
  91 11  H  1S          0.22827
  92        2S          0.09641   0.12718
  93        3PX         0.00000   0.00000   0.00018
  94        3PY         0.00000   0.00000   0.00000   0.00032
  95        3PZ         0.00000   0.00000   0.00000   0.00000   0.00117
  96 12  H  1S         -0.00010  -0.00095   0.00001   0.00000   0.00000
  97        2S         -0.00189  -0.00224   0.00002  -0.00002  -0.00007
  98        3PX         0.00000  -0.00001   0.00000   0.00000   0.00000
  99        3PY         0.00000  -0.00006   0.00000   0.00000   0.00000
 100        3PZ         0.00001   0.00009   0.00000   0.00000   0.00000
 101 13  H  1S         -0.00010  -0.00095   0.00001   0.00000   0.00000
 102        2S         -0.00189  -0.00224   0.00002  -0.00002  -0.00007
 103        3PX         0.00000  -0.00001   0.00000   0.00000   0.00000
 104        3PY         0.00000  -0.00006   0.00000   0.00000   0.00000
 105        3PZ         0.00001   0.00009   0.00000   0.00000   0.00000
                          96        97        98        99       100
  96 12  H  1S          0.20862
  97        2S          0.06325   0.04864
  98        3PX         0.00000   0.00000   0.00068
  99        3PY         0.00000   0.00000   0.00000   0.00028
 100        3PZ         0.00000   0.00000   0.00000   0.00000   0.00004
 101 13  H  1S         -0.00042  -0.00328   0.00002   0.00000   0.00000
 102        2S         -0.00328  -0.00489   0.00000   0.00000   0.00000
 103        3PX         0.00002   0.00000   0.00000   0.00000   0.00000
 104        3PY         0.00000   0.00000   0.00000   0.00000   0.00000
 105        3PZ         0.00000   0.00000   0.00000   0.00000   0.00000
                         101       102       103       104       105
 101 13  H  1S          0.20862
 102        2S          0.06325   0.04864
 103        3PX         0.00000   0.00000   0.00068
 104        3PY         0.00000   0.00000   0.00000   0.00028
 105        3PZ         0.00000   0.00000   0.00000   0.00000   0.00004
     Gross orbital populations:
                           1
   1 1   C  1S          1.99703
   2        2S          0.67255
   3        2PX         0.77332
   4        2PY         0.72805
   5        2PZ         0.51812
   6        3S          0.56953
   7        3PX         0.34390
   8        3PY         0.18272
   9        3PZ         0.28387
  10        4XX         0.02299
  11        4YY         0.02144
  12        4ZZ        -0.00937
  13        4XY         0.01432
  14        4XZ         0.00441
  15        4YZ         0.02091
  16 2   C  1S          1.99671
  17        2S          0.63534
  18        2PX         0.64821
  19        2PY         0.69576
  20        2PZ         0.72145
  21        3S          0.64950
  22        3PX         0.22067
  23        3PY         0.33183
  24        3PZ         0.40793
  25        4XX         0.00699
  26        4YY         0.00138
  27        4ZZ         0.00597
  28        4XY         0.01305
  29        4XZ         0.00136
  30        4YZ         0.01018
  31 3   H  1S          0.51894
  32        2S          0.26339
  33        3PX         0.00180
  34        3PY         0.00331
  35        3PZ         0.00836
  36 4   H  1S          0.52740
  37        2S          0.28887
  38        3PX         0.00752
  39        3PY         0.00378
  40        3PZ         0.00203
  41 5   H  1S          0.52309
  42        2S          0.26857
  43        3PX         0.00165
  44        3PY         0.00651
  45        3PZ         0.00526
  46 6   C  1S          1.99671
  47        2S          0.63534
  48        2PX         0.64820
  49        2PY         0.69578
  50        2PZ         0.72145
  51        3S          0.64950
  52        3PX         0.22064
  53        3PY         0.33185
  54        3PZ         0.40793
  55        4XX         0.00699
  56        4YY         0.00139
  57        4ZZ         0.00597
  58        4XY         0.01305
  59        4XZ         0.00136
  60        4YZ         0.01017
  61 7   H  1S          0.52309
  62        2S          0.26857
  63        3PX         0.00165
  64        3PY         0.00651
  65        3PZ         0.00525
  66 8   H  1S          0.52740
  67        2S          0.28887
  68        3PX         0.00751
  69        3PY         0.00378
  70        3PZ         0.00203
  71 9   H  1S          0.51894
  72        2S          0.26339
  73        3PX         0.00180
  74        3PY         0.00331
  75        3PZ         0.00836
  76 10  C  1S          1.99700
  77        2S          0.72193
  78        2PX         0.80155
  79        2PY         0.78702
  80        2PZ         0.29805
  81        3S          0.63938
  82        3PX         0.40733
  83        3PY         0.18545
  84        3PZ         0.19680
  85        4XX         0.01467
  86        4YY         0.01745
  87        4ZZ        -0.01764
  88        4XY         0.01531
  89        4XZ         0.00022
  90        4YZ         0.01225
  91 11  H  1S          0.53185
  92        2S          0.21146
  93        3PX         0.00304
  94        3PY         0.00334
  95        3PZ         0.01289
  96 12  H  1S          0.51782
  97        2S          0.19976
  98        3PX         0.00905
  99        3PY         0.00418
 100        3PZ         0.00081
 101 13  H  1S          0.51782
 102        2S          0.19976
 103        3PX         0.00905
 104        3PY         0.00418
 105        3PZ         0.00081
          Condensed to atoms (all electrons):
               1          2          3          4          5          6
     1  C    5.242125   0.302535  -0.038123  -0.039345  -0.034896   0.302542
     2  C    0.302535   4.939242   0.406089   0.408247   0.406444  -0.039771
     3  H   -0.038123   0.406089   0.467798  -0.019243  -0.019941  -0.002529
     4  H   -0.039345   0.408247  -0.019243   0.502697  -0.022054   0.002905
     5  H   -0.034896   0.406444  -0.019941  -0.022054   0.478683  -0.003621
     6  C    0.302542  -0.039771  -0.002529   0.002905  -0.003621   4.939228
     7  H   -0.034905  -0.003624  -0.000108  -0.000045   0.001763   0.406455
     8  H   -0.039335   0.002905  -0.000017  -0.000075  -0.000045   0.408240
     9  H   -0.038118  -0.002528   0.001050  -0.000018  -0.000107   0.406083
    10  C    0.344924  -0.048406  -0.002435  -0.003834   0.004289  -0.048404
    11  H    0.245731  -0.026801   0.003350  -0.000919  -0.005375  -0.026805
    12  H   -0.034672   0.001748  -0.000102   0.000079  -0.000059   0.000267
    13  H   -0.034675   0.000266   0.000014   0.001201  -0.000009   0.001747
               7          8          9         10         11         12
     1  C   -0.034905  -0.039335  -0.038118   0.344924   0.245731  -0.034672
     2  C   -0.003624   0.002905  -0.002528  -0.048406  -0.026801   0.001748
     3  H   -0.000108  -0.000017   0.001050  -0.002435   0.003350  -0.000102
     4  H   -0.000045  -0.000075  -0.000018  -0.003834  -0.000919   0.000079
     5  H    0.001763  -0.000045  -0.000107   0.004289  -0.005375  -0.000059
     6  C    0.406455   0.408240   0.406083  -0.048404  -0.026805   0.000267
     7  H    0.478684  -0.022056  -0.019940   0.004290  -0.005371  -0.000009
     8  H   -0.022056   0.502694  -0.019240  -0.003835  -0.000921   0.001202
     9  H   -0.019940  -0.019240   0.467796  -0.002440   0.003350   0.000014
    10  C    0.004290  -0.003835  -0.002440   5.004952   0.036823   0.395416
    11  H   -0.005371  -0.000921   0.003350   0.036823   0.549927  -0.005204
    12  H   -0.000009   0.001202   0.000014   0.395416  -0.005204   0.384753
    13  H   -0.000059   0.000078  -0.000102   0.395425  -0.005207  -0.011811
              13
     1  C   -0.034675
     2  C    0.000266
     3  H    0.000014
     4  H    0.001201
     5  H   -0.000009
     6  C    0.001747
     7  H   -0.000059
     8  H    0.000078
     9  H   -0.000102
    10  C    0.395425
    11  H   -0.005207
    12  H   -0.011811
    13  H    0.384753
 Mulliken charges:
               1
     1  C   -0.143789
     2  C   -0.346346
     3  H    0.204196
     4  H    0.170403
     5  H    0.194929
     6  C   -0.346336
     7  H    0.194925
     8  H    0.170405
     9  H    0.204201
    10  C   -0.076766
    11  H    0.237421
    12  H    0.268378
    13  H    0.268378
 Sum of Mulliken charges =   1.00000
 Mulliken charges with hydrogens summed into heavy atoms:
               1
     1  C    0.093632
     2  C    0.223182
     6  C    0.223194
    10  C    0.459991
 Electronic spatial extent (au):  <R**2>=            317.9919
 Charge=              1.0000 electrons
 Dipole moment (field-independent basis, Debye):
    X=             -0.0003    Y=              2.9161    Z=              0.4217  Tot=              2.9464
 Quadrupole moment (field-independent basis, Debye-Ang):
   XX=            -19.9723   YY=            -15.0505   ZZ=            -23.5947
   XY=             -0.0005   XZ=             -0.0002   YZ=              0.1711
 Traceless Quadrupole moment (field-independent basis, Debye-Ang):
   XX=             -0.4331   YY=              4.4887   ZZ=             -4.0555
   XY=             -0.0005   XZ=             -0.0002   YZ=              0.1711
 Octapole moment (field-independent basis, Debye-Ang**2):
  XXX=             -0.0003  YYY=             14.1919  ZZZ=             -0.3000  XYY=             -0.0015
  XXY=              1.5709  XXZ=             -0.1687  XZZ=              0.0006  YZZ=             -0.7815
  YYZ=             -0.4263  XYZ=              0.0007
 Hexadecapole moment (field-independent basis, Debye-Ang**3):
 XXXX=           -181.7248 YYYY=           -140.6816 ZZZZ=            -38.1006 XXXY=             -0.0030
 XXXZ=              0.0022 YYYX=             -0.0001 YYYZ=             -4.7977 ZZZX=             -0.0033
 ZZZY=              1.8182 XXYY=            -50.7102 XXZZ=            -39.6852 YYZZ=            -31.6730
 XXYZ=              0.5913 YYXZ=              0.0003 ZZXY=              0.0006
 N-N= 1.286860059166D+02 E-N=-6.129040859462D+02  KE= 1.564866590809D+02
 Orbital energies and kinetic energies (alpha):
                                 1                 2
  12         O                -0.747704          1.134257
  13         O                -0.738965          1.125496
  14         O                -0.738196          1.025412
  15         O                -0.707846          1.237260
  16         O                -0.702897          1.129407
  17         V                -0.130540          1.169228
  18         V                 0.014336          0.805011
  19         V                 0.055345          0.815497
  20         V                 0.075338          0.910287
  21         V                 0.107729          0.904388
 Total kinetic energy from orbitals= 1.564866590809D+02
 1\1\GINC-COMPUTE-1-17\POpt\RHF\6-31G(d,p)\C4H9(1+)\SGN228\23-Apr-2015\
 1\\#n RHF/6-31G(d,p) pop=Reg Opt=z-matrix formcheck\\Hw42c\\1,1\C\C,1,
 B1\H,2,B2,1,A2\H,2,B3,1,A3,3,D3,0\H,2,B4,1,A4,3,D4,0\C,1,B5,2,A5,3,D5,
 0\H,6,B6,1,A6,2,D6,0\H,6,B7,1,A7,2,D7,0\H,6,B8,1,A8,2,D8,0\C,1,B9,2,A9
 ,3,D9,0\H,1,B10,2,A10,3,D10,0\H,10,B11,1,A11,2,D11,0\H,10,B12,1,A12,2,
 D12,0\\B1=1.51863952\B2=1.08402833\A2=108.03726254\B3=1.08235522\A3=11
 2.43156188\D3=240.02931129\B4=1.08177072\A4=110.29589053\D4=117.890767
 85\B5=1.51862583\A5=117.14596634\D5=295.05109477\B6=1.0817706\A6=110.2
 9325422\D6=307.10250212\B7=1.08235604\A7=112.43162346\D7=184.96683696\
 B8=1.08402817\A8=108.03922661\D8=64.99367758\B9=1.38216514\A9=120.5120
 9099\D9=99.74261616\A10=108.24019812\D10=172.4093782\B11=1.07770321\A1
 1=120.59649636\D11=183.51762249\B12=1.0777003\A12=120.5958549\D12=12.3
 119432\B10=1.09653\\Version=ES64L-G09RevD.01\State=1-A\HF=-156.4126803
 \RMSD=5.306e-09\RMSF=1.662e-02\Dipole=-0.4465309,-0.8827877,-0.604213\
 Quadrupole=-2.416586,1.7593819,0.6572041,1.6816279,0.3888074,1.5872926
 \PG=C01 [X(C4H9)]\\@


     SCHOPENHAUER'S LAW OF ENTROPY
 IF YOU PUT A SPOONFUL OF WINE IN A BARREL FULL
 OF SEWAGE, YOU GET SEWAGE.
 IF YOU PUT A SPOONFUL OF SEWAGE IN A BARREL FULL
 OF WINE, YOU GET SEWAGE.
 FChkPn:  Coordinates translated and rotated.
 FChkPn:  Coordinates match /B/ after translation and rotation.
 Job cpu time:       0 days  0 hours  0 minutes 48.2 seconds.
 File lengths (MBytes):  RWF=     10 Int=      0 D2E=      0 Chk=      2 Scr=      1
 Normal termination of Gaussian 09 at Thu Apr 23 13:59:05 2015.
