 Entering Gaussian System, Link 0=g09
 Input=04_24_Homework43b.com.tmp
 Output=04_24_Homework43b.com.log
 Initial command:
 /share/apps/NYUAD/gaussian/09.D.01/l1.exe "/home/sgn228/homework/4/3b/Gau-15146.inp" -scrdir="/home/sgn228/homework/4/3b/"
 Entering Link 1 = /share/apps/NYUAD/gaussian/09.D.01/l1.exe PID=     15147.
  
 Copyright (c) 1988,1990,1992,1993,1995,1998,2003,2009,2013,
            Gaussian, Inc.  All Rights Reserved.
  
 This is part of the Gaussian(R) 09 program.  It is based on
 the Gaussian(R) 03 system (copyright 2003, Gaussian, Inc.),
 the Gaussian(R) 98 system (copyright 1998, Gaussian, Inc.),
 the Gaussian(R) 94 system (copyright 1995, Gaussian, Inc.),
 the Gaussian 92(TM) system (copyright 1992, Gaussian, Inc.),
 the Gaussian 90(TM) system (copyright 1990, Gaussian, Inc.),
 the Gaussian 88(TM) system (copyright 1988, Gaussian, Inc.),
 the Gaussian 86(TM) system (copyright 1986, Carnegie Mellon
 University), and the Gaussian 82(TM) system (copyright 1983,
 Carnegie Mellon University). Gaussian is a federally registered
 trademark of Gaussian, Inc.
  
 This software contains proprietary and confidential information,
 including trade secrets, belonging to Gaussian, Inc.
  
 This software is provided under written license and may be
 used, copied, transmitted, or stored only in accord with that
 written license.
  
 The following legend is applicable only to US Government
 contracts under FAR:
  
                    RESTRICTED RIGHTS LEGEND
  
 Use, reproduction and disclosure by the US Government is
 subject to restrictions as set forth in subparagraphs (a)
 and (c) of the Commercial Computer Software - Restricted
 Rights clause in FAR 52.227-19.
  
 Gaussian, Inc.
 340 Quinnipiac St., Bldg. 40, Wallingford CT 06492
  
  
 ---------------------------------------------------------------
 Warning -- This program may not be used in any manner that
 competes with the business of Gaussian, Inc. or will provide
 assistance to any competitor of Gaussian, Inc.  The licensee
 of this program is prohibited from giving any competitor of
 Gaussian, Inc. access to this program.  By using this program,
 the user acknowledges that Gaussian, Inc. is engaged in the
 business of creating and licensing software in the field of
 computational chemistry and represents and warrants to the
 licensee that it is not a competitor of Gaussian, Inc. and that
 it will not use this program in any manner prohibited above.
 ---------------------------------------------------------------
  

 Cite this work as:
 Gaussian 09, Revision D.01,
 M. J. Frisch, G. W. Trucks, H. B. Schlegel, G. E. Scuseria, 
 M. A. Robb, J. R. Cheeseman, G. Scalmani, V. Barone, B. Mennucci, 
 G. A. Petersson, H. Nakatsuji, M. Caricato, X. Li, H. P. Hratchian, 
 A. F. Izmaylov, J. Bloino, G. Zheng, J. L. Sonnenberg, M. Hada, 
 M. Ehara, K. Toyota, R. Fukuda, J. Hasegawa, M. Ishida, T. Nakajima, 
 Y. Honda, O. Kitao, H. Nakai, T. Vreven, J. A. Montgomery, Jr., 
 J. E. Peralta, F. Ogliaro, M. Bearpark, J. J. Heyd, E. Brothers, 
 K. N. Kudin, V. N. Staroverov, T. Keith, R. Kobayashi, J. Normand, 
 K. Raghavachari, A. Rendell, J. C. Burant, S. S. Iyengar, J. Tomasi, 
 M. Cossi, N. Rega, J. M. Millam, M. Klene, J. E. Knox, J. B. Cross, 
 V. Bakken, C. Adamo, J. Jaramillo, R. Gomperts, R. E. Stratmann, 
 O. Yazyev, A. J. Austin, R. Cammi, C. Pomelli, J. W. Ochterski, 
 R. L. Martin, K. Morokuma, V. G. Zakrzewski, G. A. Voth, 
 P. Salvador, J. J. Dannenberg, S. Dapprich, A. D. Daniels, 
 O. Farkas, J. B. Foresman, J. V. Ortiz, J. Cioslowski, 
 and D. J. Fox, Gaussian, Inc., Wallingford CT, 2013.
 
 ******************************************
 Gaussian 09:  ES64L-G09RevD.01 24-Apr-2013
                22-Apr-2015 
 ******************************************
 %NProcShared=12
 Will use up to   12 processors via shared memory.
 %LindaWorkers=compute-1-21:12
 %UseSSH
 %DebugLinda
 %NProcShared=12
 Will use up to   12 processors via shared memory.
 %Chk=04_24_Homework43a.chk
 SetLPE:  input flags=""
 SetLPE:    new flags="-vv -opt 'Tsnet.Node.lindarsharg: ssh' -mp 12 -nodelist 'compute-1-21.local' -opt 'Tsnet.compute-1-21_local.speedfactor: 12'"
 Will use up to   12 processors via Linda.
 ---------------------
 #n RHF/6-31G(d,p) Opt
 ---------------------
 1/18=20,19=15,38=1/1,3;
 2/9=110,12=2,17=6,18=5,40=1/2;
 3/5=1,6=6,7=101,11=1,16=1,25=1,30=1,71=1,116=1/1,2,3;
 4//1;
 5/5=2,38=5/2;
 6/7=2,8=2,9=2,10=2,28=1/1;
 7//1,2,3,16;
 1/18=20,19=15/3(2);
 2/9=110/2;
 99//99;
 2/9=110/2;
 3/5=1,6=6,7=101,11=1,16=1,25=1,30=1,71=1,116=1/1,2,3;
 4/5=5,16=3,69=1/1;
 5/5=2,38=5/2;
 7//1,2,3,16;
 1/18=20,19=15/3(-5);
 2/9=110/2;
 6/7=2,8=2,9=2,10=2,19=2,28=1/1;
 99/9=1/99;
 -----------------
 04_24_Homework43a
 -----------------
 Symbolic Z-matrix:
 Charge =  0 Multiplicity = 1
 C
 C                    1    B1
 C                    1    B2       2    A2
 C                    3    B3       1    A3       2    D3       0
 C                    2    B4       1    A4       3    D4       0
 C                    5    B5       2    A5       1    D5       0
 H                    2    B6       1    A6       3    D6       0
 H                    5    B7       2    A7       1    D7       0
 H                    6    B8       5    A8       2    D8       0
 H                    4    B9       3    A9       1    D9       0
 H                    1    B10      2    A10      3    D10      0
 C                    3    B11      1    A11      2    D11      0
 C                    12   B12      3    A12      1    D12      0
 C                    13   B13      12   A13      3    D13      0
 C                    14   B14      13   A14      12   D14      0
 C                    12   B15      3    A15      1    D15      0
 C                    15   B16      14   A16      13   D16      0
 H                    13   B17      12   A17      3    D17      0
 H                    14   B18      13   A18      12   D18      0
 H                    15   B19      14   A19      13   D19      0
 H                    17   B20      15   A20      14   D20      0
 H                    16   B21      12   A21      3    D21      0
       Variables:
  B1                    1.39763                  
  B2                    1.40497                  
  A2                  121.06745                  
  B3                    1.40497                  
  A3                  117.94534                  
  D3                  359.96822                  
  B4                    1.39248                  
  A4                  120.04199                  
  D4                    0.06371                  
  B5                    1.39248                  
  A5                  119.83574                  
  D5                  359.96858                  
  B6                    1.08679                  
  A6                  119.89908                  
  D6                  180.231                    
  B7                    1.08673                  
  A7                  120.08213                  
  D7                  179.96858                  
  B8                    1.08679                  
  A8                  120.05872                  
  D8                  179.80102                  
  B9                    1.08819                  
  A9                  120.06052                  
  D9                  180.74723                  
  B10                   1.08819                  
  A10                 118.86754                  
  D10                 179.2301                   
  B11                   1.47236                  
  A11                 121.02733                  
  D11                 179.96822                  
  B12                   1.40497                  
  A12                 121.02733                  
  D12                  53.85566                  
  B13                   1.39763                  
  A13                 121.06746                  
  D13                 179.96822                  
  B14                   1.39248                  
  A14                 120.04198                  
  D14                   0.06371                  
  B15                   1.40497                  
  A15                 121.02733                  
  D15                 233.85566                  
  B16                   1.39248                  
  A16                 119.83574                  
  D16                 359.96858                  
  B17                   1.08819                  
  A17                 120.06052                  
  D17                   0.74723                  
  B18                   1.08679                  
  A18                 119.89909                  
  D18                 180.231                    
  B19                   1.08673                  
  A19                 120.08213                  
  D19                 179.96858                  
  B20                   1.08679                  
  A20                 120.05872                  
  D20                 179.80102                  
  B21                   1.08819                  
  A21                 120.06052                  
  D21                   0.74723                  
 

 GradGradGradGradGradGradGradGradGradGradGradGradGradGradGradGradGradGrad
 Berny optimization.
 Initialization pass.
                           ----------------------------
                           !    Initial Parameters    !
                           ! (Angstroms and Degrees)  !
 --------------------------                            --------------------------
 ! Name  Definition              Value          Derivative Info.                !
 --------------------------------------------------------------------------------
 ! R1    R(1,2)                  1.3976         estimate D2E/DX2                !
 ! R2    R(1,3)                  1.405          estimate D2E/DX2                !
 ! R3    R(1,11)                 1.0882         estimate D2E/DX2                !
 ! R4    R(2,5)                  1.3925         estimate D2E/DX2                !
 ! R5    R(2,7)                  1.0868         estimate D2E/DX2                !
 ! R6    R(3,4)                  1.405          estimate D2E/DX2                !
 ! R7    R(3,12)                 1.4724         estimate D2E/DX2                !
 ! R8    R(4,6)                  1.3976         estimate D2E/DX2                !
 ! R9    R(4,10)                 1.0882         estimate D2E/DX2                !
 ! R10   R(5,6)                  1.3925         estimate D2E/DX2                !
 ! R11   R(5,8)                  1.0867         estimate D2E/DX2                !
 ! R12   R(6,9)                  1.0868         estimate D2E/DX2                !
 ! R13   R(12,13)                1.405          estimate D2E/DX2                !
 ! R14   R(12,16)                1.405          estimate D2E/DX2                !
 ! R15   R(13,14)                1.3976         estimate D2E/DX2                !
 ! R16   R(13,18)                1.0882         estimate D2E/DX2                !
 ! R17   R(14,15)                1.3925         estimate D2E/DX2                !
 ! R18   R(14,19)                1.0868         estimate D2E/DX2                !
 ! R19   R(15,17)                1.3925         estimate D2E/DX2                !
 ! R20   R(15,20)                1.0867         estimate D2E/DX2                !
 ! R21   R(16,17)                1.3976         estimate D2E/DX2                !
 ! R22   R(16,22)                1.0882         estimate D2E/DX2                !
 ! R23   R(17,21)                1.0868         estimate D2E/DX2                !
 ! A1    A(2,1,3)              121.0674         estimate D2E/DX2                !
 ! A2    A(2,1,11)             118.8675         estimate D2E/DX2                !
 ! A3    A(3,1,11)             120.0605         estimate D2E/DX2                !
 ! A4    A(1,2,5)              120.042          estimate D2E/DX2                !
 ! A5    A(1,2,7)              119.8991         estimate D2E/DX2                !
 ! A6    A(5,2,7)              120.0587         estimate D2E/DX2                !
 ! A7    A(1,3,4)              117.9453         estimate D2E/DX2                !
 ! A8    A(1,3,12)             121.0273         estimate D2E/DX2                !
 ! A9    A(4,3,12)             121.0273         estimate D2E/DX2                !
 ! A10   A(3,4,6)              121.0671         estimate D2E/DX2                !
 ! A11   A(3,4,10)             120.0605         estimate D2E/DX2                !
 ! A12   A(6,4,10)             118.8679         estimate D2E/DX2                !
 ! A13   A(2,5,6)              119.8357         estimate D2E/DX2                !
 ! A14   A(2,5,8)              120.0821         estimate D2E/DX2                !
 ! A15   A(6,5,8)              120.0821         estimate D2E/DX2                !
 ! A16   A(4,6,5)              120.0423         estimate D2E/DX2                !
 ! A17   A(4,6,9)              119.8987         estimate D2E/DX2                !
 ! A18   A(5,6,9)              120.0587         estimate D2E/DX2                !
 ! A19   A(3,12,13)            121.0273         estimate D2E/DX2                !
 ! A20   A(3,12,16)            121.0273         estimate D2E/DX2                !
 ! A21   A(13,12,16)           117.9453         estimate D2E/DX2                !
 ! A22   A(12,13,14)           121.0675         estimate D2E/DX2                !
 ! A23   A(12,13,18)           120.0605         estimate D2E/DX2                !
 ! A24   A(14,13,18)           118.8675         estimate D2E/DX2                !
 ! A25   A(13,14,15)           120.042          estimate D2E/DX2                !
 ! A26   A(13,14,19)           119.8991         estimate D2E/DX2                !
 ! A27   A(15,14,19)           120.0587         estimate D2E/DX2                !
 ! A28   A(14,15,17)           119.8357         estimate D2E/DX2                !
 ! A29   A(14,15,20)           120.0821         estimate D2E/DX2                !
 ! A30   A(17,15,20)           120.0821         estimate D2E/DX2                !
 ! A31   A(12,16,17)           121.0671         estimate D2E/DX2                !
 ! A32   A(12,16,22)           120.0605         estimate D2E/DX2                !
 ! A33   A(17,16,22)           118.8679         estimate D2E/DX2                !
 ! A34   A(15,17,16)           120.0423         estimate D2E/DX2                !
 ! A35   A(15,17,21)           120.0587         estimate D2E/DX2                !
 ! A36   A(16,17,21)           119.8987         estimate D2E/DX2                !
 ! D1    D(3,1,2,5)              0.0637         estimate D2E/DX2                !
 ! D2    D(3,1,2,7)           -179.769          estimate D2E/DX2                !
 ! D3    D(11,1,2,5)           179.2938         estimate D2E/DX2                !
 ! D4    D(11,1,2,7)            -0.5389         estimate D2E/DX2                !
 ! D5    D(2,1,3,4)             -0.0318         estimate D2E/DX2                !
 ! D6    D(2,1,3,12)           179.9682         estimate D2E/DX2                !
 ! D7    D(11,1,3,4)          -179.2528         estimate D2E/DX2                !
 ! D8    D(11,1,3,12)            0.7472         estimate D2E/DX2                !
 ! D9    D(1,2,5,6)             -0.0314         estimate D2E/DX2                !
 ! D10   D(1,2,5,8)            179.9686         estimate D2E/DX2                !
 ! D11   D(7,2,5,6)            179.801          estimate D2E/DX2                !
 ! D12   D(7,2,5,8)             -0.199          estimate D2E/DX2                !
 ! D13   D(1,3,4,6)             -0.0318         estimate D2E/DX2                !
 ! D14   D(1,3,4,10)          -179.2528         estimate D2E/DX2                !
 ! D15   D(12,3,4,6)           179.9682         estimate D2E/DX2                !
 ! D16   D(12,3,4,10)            0.7472         estimate D2E/DX2                !
 ! D17   D(1,3,12,13)           53.8557         estimate D2E/DX2                !
 ! D18   D(1,3,12,16)         -126.1443         estimate D2E/DX2                !
 ! D19   D(4,3,12,13)         -126.1443         estimate D2E/DX2                !
 ! D20   D(4,3,12,16)           53.8557         estimate D2E/DX2                !
 ! D21   D(3,4,6,5)              0.0637         estimate D2E/DX2                !
 ! D22   D(3,4,6,9)           -179.769          estimate D2E/DX2                !
 ! D23   D(10,4,6,5)           179.2938         estimate D2E/DX2                !
 ! D24   D(10,4,6,9)            -0.5389         estimate D2E/DX2                !
 ! D25   D(2,5,6,4)             -0.0314         estimate D2E/DX2                !
 ! D26   D(2,5,6,9)            179.801          estimate D2E/DX2                !
 ! D27   D(8,5,6,4)            179.9686         estimate D2E/DX2                !
 ! D28   D(8,5,6,9)             -0.199          estimate D2E/DX2                !
 ! D29   D(3,12,13,14)         179.9682         estimate D2E/DX2                !
 ! D30   D(3,12,13,18)           0.7472         estimate D2E/DX2                !
 ! D31   D(16,12,13,14)         -0.0318         estimate D2E/DX2                !
 ! D32   D(16,12,13,18)       -179.2528         estimate D2E/DX2                !
 ! D33   D(3,12,16,17)         179.9682         estimate D2E/DX2                !
 ! D34   D(3,12,16,22)           0.7472         estimate D2E/DX2                !
 ! D35   D(13,12,16,17)         -0.0318         estimate D2E/DX2                !
 ! D36   D(13,12,16,22)       -179.2528         estimate D2E/DX2                !
 ! D37   D(12,13,14,15)          0.0637         estimate D2E/DX2                !
 ! D38   D(12,13,14,19)       -179.769          estimate D2E/DX2                !
 ! D39   D(18,13,14,15)        179.2938         estimate D2E/DX2                !
 ! D40   D(18,13,14,19)         -0.5389         estimate D2E/DX2                !
 ! D41   D(13,14,15,17)         -0.0314         estimate D2E/DX2                !
 ! D42   D(13,14,15,20)        179.9686         estimate D2E/DX2                !
 ! D43   D(19,14,15,17)        179.801          estimate D2E/DX2                !
 ! D44   D(19,14,15,20)         -0.199          estimate D2E/DX2                !
 ! D45   D(14,15,17,16)         -0.0314         estimate D2E/DX2                !
 ! D46   D(14,15,17,21)        179.801          estimate D2E/DX2                !
 ! D47   D(20,15,17,16)        179.9686         estimate D2E/DX2                !
 ! D48   D(20,15,17,21)         -0.199          estimate D2E/DX2                !
 ! D49   D(12,16,17,15)          0.0637         estimate D2E/DX2                !
 ! D50   D(12,16,17,21)       -179.769          estimate D2E/DX2                !
 ! D51   D(22,16,17,15)        179.2938         estimate D2E/DX2                !
 ! D52   D(22,16,17,21)         -0.5389         estimate D2E/DX2                !
 --------------------------------------------------------------------------------
 Trust Radius=3.00D-01 FncErr=1.00D-07 GrdErr=1.00D-07
 Number of steps in this run=    121 maximum allowed number of steps=    132.
 GradGradGradGradGradGradGradGradGradGradGradGradGradGradGradGradGradGrad

                          Input orientation:                          
 ---------------------------------------------------------------------
 Center     Atomic      Atomic             Coordinates (Angstroms)
 Number     Number       Type             X           Y           Z
 ---------------------------------------------------------------------
      1          6           0        0.000000    0.000000    0.000000
      2          6           0        0.000000    0.000000    1.397630
      3          6           0        1.203442    0.000000   -0.725030
      4          6           0        2.407897    0.000688   -0.001686
      5          6           0        1.205412    0.001340    2.094754
      6          6           0        2.409846    0.002017    1.395942
      7          1           0       -0.942136   -0.003798    1.939366
      8          1           0        1.206173    0.001857    3.181483
      9          1           0        3.352740    0.006330    1.936355
     10          1           0        3.360044    0.012993   -0.528395
     11          1           0       -0.952883   -0.012805   -0.525363
     12          6           0        1.202411   -0.000700   -2.197390
     13          6           0        0.491511    0.970982   -2.921542
     14          6           0        0.490491    0.971500   -4.319171
     15          6           0        1.200434   -0.002037   -5.017174
     16          6           0        1.912297   -0.973070   -2.921612
     17          6           0        1.911354   -0.974910   -4.319241
     18          1           0       -0.060241    1.747510   -2.395488
     19          1           0       -0.062965    1.734431   -4.860221
     20          1           0        1.199673   -0.002553   -6.103903
     21          1           0        2.464053   -1.738355   -4.860340
     22          1           0        2.464785   -1.749098   -2.395594
 ---------------------------------------------------------------------
                    Distance matrix (angstroms):
                    1          2          3          4          5
     1  C    0.000000
     2  C    1.397630   0.000000
     3  C    1.404970   2.440073   0.000000
     4  C    2.407898   2.784970   1.404970   0.000000
     5  C    2.416819   1.392480   2.819785   2.416823   0.000000
     6  C    2.784963   2.409848   2.440069   1.397630   1.392480
     7  H    2.156102   1.086790   3.420896   3.871747   2.153168
     8  H    3.402454   2.153367   3.906515   3.402457   1.086730
     9  H    3.871740   3.395751   3.420890   2.156099   2.153168
    10  H    3.401363   3.872937   2.165587   1.088190   3.394626
    11  H    1.088190   2.146172   2.165587   3.401363   3.394621
    12  C    2.504858   3.790773   1.472360   2.504858   4.292145
    13  C    3.117658   4.454170   2.504858   3.624854   5.158786
    14  C    4.454170   5.819468   3.790773   4.822821   6.526159
    15  C    5.158786   6.526159   4.292145   5.158788   7.111930
    16  C    3.624854   4.822821   2.504858   3.117658   5.158788
    17  C    4.822817   6.106254   3.790770   4.454169   6.526158
    18  H    2.965768   4.176741   2.727840   3.856602   4.981290
    19  H    5.160811   6.494068   4.659597   5.719824   7.279015
    20  H    6.220680   7.596856   5.378875   6.220681   8.198660
    21  H    5.719820   6.946627   4.659593   5.160808   7.279014
    22  H    3.856602   4.850057   2.727840   2.965768   4.981292
                    6          7          8          9         10
     6  C    0.000000
     7  H    3.395751   0.000000
     8  H    2.153367   2.481555   0.000000
     9  H    1.086790   4.294888   2.481555   0.000000
    10  H    2.146176   4.959726   4.289812   2.464770   0.000000
    11  H    3.872930   2.464770   4.289808   4.959719   4.313006
    12  C    3.790770   4.659597   5.378875   4.659593   2.727840
    13  C    4.822817   5.160810   6.220680   5.719820   3.856602
    14  C    6.106254   6.494068   7.596856   6.946627   4.850057
    15  C    6.526159   7.279015   8.198660   7.279014   4.981292
    16  C    4.454169   5.719824   6.220681   5.160808   2.965768
    17  C    5.819467   6.946627   7.596856   6.494066   4.176741
    18  H    4.850053   4.757707   5.979441   5.783165   4.265317
    19  H    6.946627   7.073102   8.323553   7.800437   5.783170
    20  H    7.596856   8.323553   9.285390   8.323552   5.979443
    21  H    6.494066   7.800437   8.323552   7.073100   4.757706
    22  H    4.176741   5.783170   5.979443   4.757706   2.718986
                   11         12         13         14         15
    11  H    0.000000
    12  C    2.727840   0.000000
    13  C    2.965768   1.404970   0.000000
    14  C    4.176741   2.440074   1.397630   0.000000
    15  C    4.981290   2.819785   2.416818   1.392480   0.000000
    16  C    3.856602   1.404970   2.407898   2.784970   2.416823
    17  C    4.850053   2.440069   2.784962   2.409848   1.392480
    18  H    2.718986   2.165587   1.088190   2.146172   3.394621
    19  H    4.757708   3.420896   2.156102   1.086790   2.153168
    20  H    5.979441   3.906515   3.402454   2.153367   1.086730
    21  H    5.783165   3.420890   3.871740   3.395751   2.153168
    22  H    4.265317   2.165587   3.401363   3.872937   3.394626
                   16         17         18         19         20
    16  C    0.000000
    17  C    1.397630   0.000000
    18  H    3.401363   3.872929   0.000000
    19  H    3.871748   3.395751   2.464770   0.000000
    20  H    3.402457   2.153367   4.289807   2.481555   0.000000
    21  H    2.156098   1.086790   4.959719   4.294888   2.481555
    22  H    1.088190   2.146176   4.313006   4.959726   4.289812
                   21         22
    21  H    0.000000
    22  H    2.464770   0.000000
 Stoichiometry    C12H10
 Framework group  C2[X(C12H10)]
 Deg. of freedom    31
 Full point group                 C2      NOp   2
 Largest Abelian subgroup         C2      NOp   2
 Largest concise Abelian subgroup C2      NOp   2
                         Standard orientation:                         
 ---------------------------------------------------------------------
 Center     Atomic      Atomic             Coordinates (Angstroms)
 Number     Number       Type             X           Y           Z
 ---------------------------------------------------------------------
      1          6           0        0.545229   -1.460368   -1.073412
      2          6           0        0.546263   -2.857997   -1.073984
      3          6           0        0.000000   -0.736180    0.000002
      4          6           0       -0.545231   -1.460367    1.073416
      5          6           0        0.000000   -3.555965   -0.000002
      6          6           0       -0.546263   -2.857997    1.073980
      7          1           0        0.976474   -3.399072   -1.912596
      8          1           0       -0.000001   -4.642695   -0.000002
      9          1           0       -0.976474   -3.399071    1.912592
     10          1           0       -0.987546   -0.934330    1.917098
     11          1           0        0.987545   -0.934332   -1.917094
     12          6           0        0.000000    0.736180    0.000002
     13          6           0       -0.545229    1.460368   -1.073412
     14          6           0       -0.546263    2.857997   -1.073984
     15          6           0        0.000000    3.555965   -0.000002
     16          6           0        0.545231    1.460367    1.073416
     17          6           0        0.546263    2.857997    1.073980
     18          1           0       -0.987545    0.934332   -1.917094
     19          1           0       -0.976474    3.399072   -1.912596
     20          1           0        0.000001    4.642695   -0.000002
     21          1           0        0.976474    3.399071    1.912592
     22          1           0        0.987546    0.934330    1.917098
 ---------------------------------------------------------------------
 Rotational constants (GHZ):      2.8616825      0.5371608      0.4837552
 Standard basis: 6-31G(d,p) (6D, 7F)
 There are   115 symmetry adapted cartesian basis functions of A   symmetry.
 There are   115 symmetry adapted cartesian basis functions of B   symmetry.
 There are   115 symmetry adapted basis functions of A   symmetry.
 There are   115 symmetry adapted basis functions of B   symmetry.
   230 basis functions,   406 primitive gaussians,   230 cartesian basis functions
    41 alpha electrons       41 beta electrons
       nuclear repulsion energy       598.7222085831 Hartrees.
 NAtoms=   22 NActive=   22 NUniq=   11 SFac= 4.00D+00 NAtFMM=   60 NAOKFM=F Big=F
 Integral buffers will be    131072 words long.
 Raffenetti 1 integral format.
 Two-electron integral symmetry is turned on.
 One-electron integrals computed using PRISM.
 PrsmSu:  requested number of processors reduced to:   9 ShMem   1 Linda.
 NBasis=   230 RedAO= T EigKep=  3.22D-04  NBF=   115   115
 NBsUse=   230 1.00D-06 EigRej= -1.00D+00 NBFU=   115   115
 ExpMin= 1.61D-01 ExpMax= 3.05D+03 ExpMxC= 4.57D+02 IAcc=1 IRadAn=         1 AccDes= 0.00D+00
 Harris functional with IExCor=  205 and IRadAn=       1 diagonalized for initial guess.
 HarFok:  IExCor=  205 AccDes= 0.00D+00 IRadAn=         1 IDoV= 1 UseB2=F ITyADJ=14
 ICtDFT=  3500011 ScaDFX=  1.000000  1.000000  1.000000  1.000000
 FoFCou: FMM=F IPFlag=           0 FMFlag=      100000 FMFlg1=           0
         NFxFlg=           0 DoJE=T BraDBF=F KetDBF=T FulRan=T
         wScrn=  0.000000 ICntrl=     500 IOpCl=  0 I1Cent=   200000004 NGrid=           0
         NMat0=    1 NMatS0=      1 NMatT0=    0 NMatD0=    1 NMtDS0=    0 NMtDT0=    0
 Petite list used in FoFCou.
 Initial guess orbital symmetries:
       Occupied  (B) (A) (B) (A) (A) (B) (B) (A) (A) (B) (A) (B)
                 (A) (B) (A) (A) (B) (B) (A) (A) (B) (B) (A) (B)
                 (A) (B) (A) (B) (A) (A) (B) (B) (B) (A) (A) (A)
                 (B) (B) (A) (B) (A)
       Virtual   (B) (A) (B) (A) (B) (A) (B) (A) (A) (B) (B) (A)
                 (A) (B) (A) (B) (B) (A) (A) (A) (A) (B) (B) (B)
                 (B) (A) (B) (A) (A) (B) (B) (A) (A) (A) (B) (B)
                 (A) (B) (B) (A) (A) (B) (B) (A) (B) (A) (A) (A)
                 (B) (B) (A) (A) (B) (B) (A) (A) (B) (A) (B) (B)
                 (A) (B) (B) (B) (A) (B) (B) (A) (B) (A) (A) (B)
                 (B) (A) (A) (A) (B) (B) (A) (A) (B) (A) (B) (A)
                 (B) (B) (A) (A) (B) (A) (B) (B) (B) (A) (A) (B)
                 (A) (A) (B) (A) (A) (B) (A) (B) (A) (A) (B) (B)
                 (A) (A) (B) (B) (A) (B) (A) (B) (B) (B) (A) (A)
                 (B) (A) (A) (B) (B) (B) (A) (A) (A) (B) (B) (B)
                 (A) (A) (B) (A) (B) (A) (A) (B) (B) (A) (B) (B)
                 (A) (A) (A) (B) (A) (B) (A) (B) (A) (B) (B) (A)
                 (B) (A) (B) (A) (B) (B) (A) (A) (B) (B) (A) (A)
                 (B) (A) (B) (A) (B) (B) (A) (A) (B) (A) (B) (B)
                 (A) (A) (B) (A) (A) (B) (B) (A) (B)
 The electronic state of the initial guess is 1-A.
 Requested convergence on RMS density matrix=1.00D-08 within 128 cycles.
 Requested convergence on MAX density matrix=1.00D-06.
 Requested convergence on             energy=1.00D-06.
 No special actions if energy rises.
 Integral accuracy reduced to 1.0D-05 until final iterations.
 Initial convergence to 1.0D-05 achieved.  Increase integral accuracy.
 SCF Done:  E(RHF) =  -460.268707916     A.U. after   13 cycles
            NFock= 13  Conv=0.39D-08     -V/T= 2.0020

 **********************************************************************

            Population analysis using the SCF density.

 **********************************************************************

 Orbital symmetries:
       Occupied  (A) (B) (A) (B) (B) (A) (A) (B) (B) (A) (A) (B)
                 (A) (B) (A) (A) (B) (B) (A) (A) (B) (B) (A) (B)
                 (A) (A) (B) (B) (A) (A) (B) (B) (B) (A) (A) (B)
                 (A) (B) (A) (B) (A)
       Virtual   (B) (A) (B) (A) (B) (A) (A) (B) (A) (B) (A) (A)
                 (B) (B) (B) (A) (B) (A) (A) (B) (A) (A) (B) (B)
                 (B) (A) (B) (A) (A) (B) (A) (B) (A) (B) (A) (A)
                 (B) (B) (B) (A) (B) (A) (B) (A) (B) (A) (A) (A)
                 (B) (B) (A) (A) (B) (B) (A) (B) (A) (B) (A) (A)
                 (B) (B) (B) (A) (B) (B) (B) (A) (A) (B) (A) (B)
                 (A) (B) (A) (A) (B) (B) (A) (A) (B) (A) (B) (A)
                 (B) (B) (A) (B) (B) (A) (A) (B) (B) (A) (A) (B)
                 (A) (A) (A) (A) (B) (B) (A) (B) (A) (B) (A) (B)
                 (A) (B) (A) (B) (A) (B) (A) (B) (B) (B) (A) (A)
                 (B) (A) (B) (A) (B) (B) (A) (A) (A) (B) (B) (A)
                 (B) (A) (B) (A) (B) (A) (B) (A) (B) (A) (B) (B)
                 (A) (A) (A) (B) (A) (B) (A) (B) (A) (B) (B) (A)
                 (B) (A) (B) (A) (B) (A) (B) (A) (B) (B) (A) (A)
                 (B) (A) (A) (B) (B) (A) (B) (A) (B) (A) (B) (B)
                 (A) (A) (B) (A) (A) (B) (B) (A) (B)
 The electronic state is 1-A.
 Alpha  occ. eigenvalues --  -11.24347 -11.24272 -11.23495 -11.23494 -11.23480
 Alpha  occ. eigenvalues --  -11.23479 -11.23377 -11.23376 -11.23360 -11.23360
 Alpha  occ. eigenvalues --  -11.23230 -11.23230  -1.16243  -1.13407  -1.04889
 Alpha  occ. eigenvalues --   -1.01123  -1.00497  -0.97713  -0.84635  -0.83189
 Alpha  occ. eigenvalues --   -0.80840  -0.78347  -0.71023  -0.67641  -0.64674
 Alpha  occ. eigenvalues --   -0.62989  -0.61267  -0.60491  -0.58137  -0.57882
 Alpha  occ. eigenvalues --   -0.57686  -0.51455  -0.50578  -0.49656  -0.48395
 Alpha  occ. eigenvalues --   -0.47975  -0.47677  -0.35435  -0.33228  -0.32858
 Alpha  occ. eigenvalues --   -0.30183
 Alpha virt. eigenvalues --    0.11758   0.13743   0.14727   0.17397   0.23978
 Alpha virt. eigenvalues --    0.24371   0.28336   0.29642   0.30233   0.31265
 Alpha virt. eigenvalues --    0.32847   0.33037   0.33775   0.34700   0.36273
 Alpha virt. eigenvalues --    0.36958   0.43581   0.44813   0.47129   0.48676
 Alpha virt. eigenvalues --    0.48975   0.50321   0.50435   0.54656   0.57851
 Alpha virt. eigenvalues --    0.63153   0.69643   0.73702   0.73816   0.74747
 Alpha virt. eigenvalues --    0.76064   0.76790   0.77283   0.77481   0.78113
 Alpha virt. eigenvalues --    0.81407   0.81924   0.82711   0.82720   0.83715
 Alpha virt. eigenvalues --    0.84102   0.84319   0.84460   0.84751   0.85633
 Alpha virt. eigenvalues --    0.86343   0.89745   0.90777   0.92493   0.93805
 Alpha virt. eigenvalues --    0.97162   1.00379   1.03925   1.06238   1.06921
 Alpha virt. eigenvalues --    1.06935   1.08011   1.08358   1.09088   1.09395
 Alpha virt. eigenvalues --    1.09410   1.11649   1.12970   1.15961   1.17036
 Alpha virt. eigenvalues --    1.19811   1.20308   1.21166   1.23239   1.26348
 Alpha virt. eigenvalues --    1.28831   1.30851   1.33205   1.34722   1.35062
 Alpha virt. eigenvalues --    1.39066   1.41974   1.42862   1.44996   1.46719
 Alpha virt. eigenvalues --    1.52504   1.54896   1.55764   1.60898   1.61013
 Alpha virt. eigenvalues --    1.66562   1.67834   1.67976   1.68414   1.68798
 Alpha virt. eigenvalues --    1.69834   1.70460   1.71929   1.72244   1.75187
 Alpha virt. eigenvalues --    1.92979   2.00853   2.03046   2.08569   2.08649
 Alpha virt. eigenvalues --    2.09090   2.11674   2.13866   2.14956   2.19211
 Alpha virt. eigenvalues --    2.20518   2.23807   2.24742   2.26089   2.26978
 Alpha virt. eigenvalues --    2.27830   2.28644   2.28684   2.28945   2.30733
 Alpha virt. eigenvalues --    2.32003   2.36777   2.37485   2.37969   2.38368
 Alpha virt. eigenvalues --    2.49786   2.53427   2.56748   2.59940   2.63018
 Alpha virt. eigenvalues --    2.63487   2.64085   2.67283   2.68893   2.69474
 Alpha virt. eigenvalues --    2.69673   2.70395   2.72444   2.72924   2.74026
 Alpha virt. eigenvalues --    2.76455   2.77545   2.79265   2.80085   2.82042
 Alpha virt. eigenvalues --    2.82781   2.83955   2.83956   2.86273   2.86767
 Alpha virt. eigenvalues --    2.87075   2.92364   2.92416   2.96108   2.96196
 Alpha virt. eigenvalues --    2.98811   3.00455   3.05710   3.06299   3.07086
 Alpha virt. eigenvalues --    3.13735   3.15678   3.16990   3.28150   3.30748
 Alpha virt. eigenvalues --    3.39818   3.42176   3.42620   3.54050   3.54977
 Alpha virt. eigenvalues --    3.60079   3.60163   3.61233   3.61479   3.69922
 Alpha virt. eigenvalues --    3.77298   3.77660   3.82361   3.88129   3.88251
 Alpha virt. eigenvalues --    4.25635   4.31385   4.56206   4.56452   4.58631
 Alpha virt. eigenvalues --    4.58854   4.59901   4.62380   4.81785   4.86787
 Alpha virt. eigenvalues --    4.86828   4.91964   5.20261   5.31490
          Condensed to atoms (all electrons):
               1          2          3          4          5          6
     1  C    4.849922   0.538239   0.557994  -0.036109  -0.049726  -0.035777
     2  C    0.538239   4.843061  -0.045242  -0.035776   0.552011  -0.045499
     3  C    0.557994  -0.045242   4.814192   0.557993  -0.026960  -0.045242
     4  C   -0.036109  -0.035776   0.557993   4.849921  -0.049726   0.538239
     5  C   -0.049726   0.552011  -0.026960  -0.049726   4.833726   0.552012
     6  C   -0.035777  -0.045499  -0.045242   0.538239   0.552012   4.843061
     7  H   -0.027068   0.392398   0.001684   0.000394  -0.029421   0.002218
     8  H    0.002385  -0.029590   0.000295   0.002385   0.393526  -0.029590
     9  H    0.000394   0.002218   0.001684  -0.027068  -0.029421   0.392398
    10  H    0.002583   0.000167  -0.033065   0.391873   0.002412  -0.028584
    11  H    0.391873  -0.028585  -0.033065   0.002583   0.002412   0.000167
    12  C   -0.045250   0.004027   0.352807  -0.045250   0.000172   0.004027
    13  C   -0.005907   0.000097  -0.045250   0.002358   0.000005  -0.000079
    14  C    0.000097   0.000001   0.004027  -0.000079   0.000000   0.000001
    15  C    0.000005   0.000000   0.000172   0.000005   0.000000   0.000000
    16  C    0.002358  -0.000079  -0.045250  -0.005907   0.000005   0.000097
    17  C   -0.000079   0.000001   0.004027   0.000097   0.000000   0.000001
    18  H    0.002283  -0.000044  -0.000184   0.000156  -0.000004  -0.000018
    19  H   -0.000004   0.000000  -0.000124   0.000001   0.000000   0.000000
    20  H    0.000000   0.000000   0.000003   0.000000   0.000000   0.000000
    21  H    0.000001   0.000000  -0.000124  -0.000004   0.000000   0.000000
    22  H    0.000156  -0.000018  -0.000184   0.002283  -0.000004  -0.000044
               7          8          9         10         11         12
     1  C   -0.027068   0.002385   0.000394   0.002583   0.391873  -0.045250
     2  C    0.392398  -0.029590   0.002218   0.000167  -0.028585   0.004027
     3  C    0.001684   0.000295   0.001684  -0.033065  -0.033065   0.352807
     4  C    0.000394   0.002385  -0.027068   0.391873   0.002583  -0.045250
     5  C   -0.029421   0.393526  -0.029421   0.002412   0.002412   0.000172
     6  C    0.002218  -0.029590   0.392398  -0.028584   0.000167   0.004027
     7  H    0.512797  -0.001838  -0.000122   0.000011  -0.001890  -0.000124
     8  H   -0.001838   0.515879  -0.001838  -0.000116  -0.000116   0.000003
     9  H   -0.000122  -0.001838   0.512798  -0.001890   0.000011  -0.000124
    10  H    0.000011  -0.000116  -0.001890   0.507973  -0.000115  -0.000184
    11  H   -0.001890  -0.000116   0.000011  -0.000115   0.507974  -0.000184
    12  C   -0.000124   0.000003  -0.000124  -0.000184  -0.000184   4.814192
    13  C   -0.000004   0.000000   0.000001   0.000156   0.002283   0.557994
    14  C    0.000000   0.000000   0.000000  -0.000018  -0.000044  -0.045242
    15  C    0.000000   0.000000   0.000000  -0.000004  -0.000004  -0.026960
    16  C    0.000001   0.000000  -0.000004   0.002283   0.000156   0.557993
    17  C    0.000000   0.000000   0.000000  -0.000044  -0.000018  -0.045242
    18  H    0.000002   0.000000   0.000000   0.000008   0.000455  -0.033065
    19  H    0.000000   0.000000   0.000000   0.000000   0.000002   0.001684
    20  H    0.000000   0.000000   0.000000   0.000000   0.000000   0.000295
    21  H    0.000000   0.000000   0.000000   0.000002   0.000000   0.001684
    22  H    0.000000   0.000000   0.000002   0.000455   0.000008  -0.033065
              13         14         15         16         17         18
     1  C   -0.005907   0.000097   0.000005   0.002358  -0.000079   0.002283
     2  C    0.000097   0.000001   0.000000  -0.000079   0.000001  -0.000044
     3  C   -0.045250   0.004027   0.000172  -0.045250   0.004027  -0.000184
     4  C    0.002358  -0.000079   0.000005  -0.005907   0.000097   0.000156
     5  C    0.000005   0.000000   0.000000   0.000005   0.000000  -0.000004
     6  C   -0.000079   0.000001   0.000000   0.000097   0.000001  -0.000018
     7  H   -0.000004   0.000000   0.000000   0.000001   0.000000   0.000002
     8  H    0.000000   0.000000   0.000000   0.000000   0.000000   0.000000
     9  H    0.000001   0.000000   0.000000  -0.000004   0.000000   0.000000
    10  H    0.000156  -0.000018  -0.000004   0.002283  -0.000044   0.000008
    11  H    0.002283  -0.000044  -0.000004   0.000156  -0.000018   0.000455
    12  C    0.557994  -0.045242  -0.026960   0.557993  -0.045242  -0.033065
    13  C    4.849922   0.538239  -0.049726  -0.036109  -0.035777   0.391873
    14  C    0.538239   4.843061   0.552011  -0.035776  -0.045499  -0.028585
    15  C   -0.049726   0.552011   4.833726  -0.049726   0.552012   0.002412
    16  C   -0.036109  -0.035776  -0.049726   4.849921   0.538239   0.002583
    17  C   -0.035777  -0.045499   0.552012   0.538239   4.843061   0.000167
    18  H    0.391873  -0.028585   0.002412   0.002583   0.000167   0.507974
    19  H   -0.027068   0.392398  -0.029421   0.000394   0.002218  -0.001890
    20  H    0.002385  -0.029590   0.393526   0.002385  -0.029590  -0.000116
    21  H    0.000394   0.002218  -0.029421  -0.027068   0.392398   0.000011
    22  H    0.002583   0.000167   0.002412   0.391873  -0.028584  -0.000115
              19         20         21         22
     1  C   -0.000004   0.000000   0.000001   0.000156
     2  C    0.000000   0.000000   0.000000  -0.000018
     3  C   -0.000124   0.000003  -0.000124  -0.000184
     4  C    0.000001   0.000000  -0.000004   0.002283
     5  C    0.000000   0.000000   0.000000  -0.000004
     6  C    0.000000   0.000000   0.000000  -0.000044
     7  H    0.000000   0.000000   0.000000   0.000000
     8  H    0.000000   0.000000   0.000000   0.000000
     9  H    0.000000   0.000000   0.000000   0.000002
    10  H    0.000000   0.000000   0.000002   0.000455
    11  H    0.000002   0.000000   0.000000   0.000008
    12  C    0.001684   0.000295   0.001684  -0.033065
    13  C   -0.027068   0.002385   0.000394   0.002583
    14  C    0.392398  -0.029590   0.002218   0.000167
    15  C   -0.029421   0.393526  -0.029421   0.002412
    16  C    0.000394   0.002385  -0.027068   0.391873
    17  C    0.002218  -0.029590   0.392398  -0.028584
    18  H   -0.001890  -0.000116   0.000011  -0.000115
    19  H    0.512797  -0.001838  -0.000122   0.000011
    20  H   -0.001838   0.515879  -0.001838  -0.000116
    21  H   -0.000122  -0.001838   0.512798  -0.001890
    22  H    0.000011  -0.000116  -0.001890   0.507973
 Mulliken charges:
               1
     1  C   -0.148372
     2  C   -0.147387
     3  C   -0.020191
     4  C   -0.148371
     5  C   -0.151021
     6  C   -0.147388
     7  H    0.150961
     8  H    0.148616
     9  H    0.150960
    10  H    0.156097
    11  H    0.156096
    12  C   -0.020191
    13  C   -0.148372
    14  C   -0.147387
    15  C   -0.151021
    16  C   -0.148371
    17  C   -0.147388
    18  H    0.156096
    19  H    0.150961
    20  H    0.148616
    21  H    0.150960
    22  H    0.156097
 Sum of Mulliken charges =   0.00000
 Mulliken charges with hydrogens summed into heavy atoms:
               1
     1  C    0.007725
     2  C    0.003573
     3  C   -0.020191
     4  C    0.007726
     5  C   -0.002405
     6  C    0.003572
    12  C   -0.020191
    13  C    0.007725
    14  C    0.003573
    15  C   -0.002405
    16  C    0.007726
    17  C    0.003572
 Electronic spatial extent (au):  <R**2>=           2308.7428
 Charge=              0.0000 electrons
 Dipole moment (field-independent basis, Debye):
    X=              0.0000    Y=              0.0000    Z=              0.0000  Tot=              0.0000
 Quadrupole moment (field-independent basis, Debye-Ang):
   XX=            -74.0161   YY=            -61.2647   ZZ=            -64.3211
   XY=              0.0000   XZ=              0.0000   YZ=              0.0000
 Traceless Quadrupole moment (field-independent basis, Debye-Ang):
   XX=             -7.4821   YY=              5.2692   ZZ=              2.2129
   XY=              0.0000   XZ=              0.0000   YZ=              0.0000
 Octapole moment (field-independent basis, Debye-Ang**2):
  XXX=              0.0000  YYY=              0.0000  ZZZ=              0.0000  XYY=              0.0000
  XXY=              0.0000  XXZ=              0.0000  XZZ=              0.0000  YZZ=              0.0000
  YYZ=             -0.0003  XYZ=             15.3919
 Hexadecapole moment (field-independent basis, Debye-Ang**3):
 XXXX=           -196.1790 YYYY=          -2281.3962 ZZZZ=           -457.7062 XXXY=             -0.0002
 XXXZ=              0.0000 YYYX=             -0.0005 YYYZ=              0.0000 ZZZX=              0.0000
 ZZZY=              0.0000 XXYY=           -489.2518 XXZZ=           -101.7951 YYZZ=           -472.8842
 XXYZ=              0.0000 YYXZ=              0.0000 ZZXY=             -0.0002
 N-N= 5.987222085831D+02 E-N=-2.268701092249D+03  KE= 4.593715844668D+02
 Symmetry A    KE= 2.309133292908D+02
 Symmetry B    KE= 2.284582551760D+02
 PrsmSu:  requested number of processors reduced to:   9 ShMem   1 Linda.
 Calling FoFJK, ICntrl=      2127 FMM=F ISym2X=1 I1Cent= 0 IOpClX= 0 NMat=1 NMatS=1 NMatT=0.
 ***** Axes restored to original set *****
 -------------------------------------------------------------------
 Center     Atomic                   Forces (Hartrees/Bohr)
 Number     Number              X              Y              Z
 -------------------------------------------------------------------
      1        6           0.000276974    0.000904246    0.003711897
      2        6           0.002651561    0.000364273   -0.005660003
      3        6           0.000018011    0.000012289    0.025714305
      4        6          -0.000273932   -0.000900713    0.003713471
      5        6           0.000000768    0.000000546    0.001138535
      6        6          -0.002657381   -0.000369681   -0.005655734
      7        1           0.006931749   -0.000122239   -0.004534901
      8        1          -0.000005505   -0.000003798   -0.007998408
      9        1          -0.006938219    0.000117937   -0.004524814
     10        1          -0.008892566    0.000047129    0.002715189
     11        1           0.008896497   -0.000044546    0.002702252
     12        6          -0.000018056   -0.000012267   -0.025714305
     13        6          -0.000569120   -0.000755959   -0.003711763
     14        6           0.001275262   -0.002357450    0.005658201
     15        6          -0.000000818   -0.000000520   -0.001138535
     16        6           0.000562645    0.000754169   -0.003713603
     17        6          -0.001266073    0.002361149    0.005657535
     18        1           0.005285435   -0.007153922   -0.002708761
     19        1           0.004193674   -0.005524805    0.004529795
     20        1           0.000005654    0.000003722    0.007998408
     21        1          -0.004187408    0.005529211    0.004529921
     22        1          -0.005289153    0.007151231   -0.002708681
 -------------------------------------------------------------------
 Cartesian Forces:  Max     0.025714305 RMS     0.005888845

 GradGradGradGradGradGradGradGradGradGradGradGradGradGradGradGradGradGrad
 Berny optimization.
 FormGI is forming the generalized inverse of G from B-inverse, IUseBI=4.
 Internal  Forces:  Max     0.013618812 RMS     0.004866359
 Search for a local minimum.
 Step number   1 out of a maximum of  121
 All quantities printed in internal units (Hartrees-Bohrs-Radians)
 Mixed Optimization -- RFO/linear search
 Second derivative matrix not updated -- first step.
 ITU=  0
     Eigenvalues ---    0.01132   0.01746   0.01746   0.02037   0.02037
     Eigenvalues ---    0.02068   0.02068   0.02076   0.02076   0.02114
     Eigenvalues ---    0.02114   0.02149   0.02149   0.02156   0.02156
     Eigenvalues ---    0.02171   0.02171   0.02188   0.02188   0.15999
     Eigenvalues ---    0.15999   0.15999   0.15999   0.16000   0.16000
     Eigenvalues ---    0.16000   0.16000   0.16000   0.16000   0.22000
     Eigenvalues ---    0.22000   0.22000   0.22000   0.23468   0.23468
     Eigenvalues ---    0.25000   0.25000   0.35023   0.35023   0.35023
     Eigenvalues ---    0.35023   0.35186   0.35186   0.35186   0.35186
     Eigenvalues ---    0.35193   0.35193   0.35459   0.41557   0.41557
     Eigenvalues ---    0.41691   0.41691   0.45094   0.45094   0.46016
     Eigenvalues ---    0.46016   0.46054   0.46054   0.46749   0.46749
 RFO step:  Lambda=-6.59468614D-03 EMin= 1.13157169D-02
 Linear search not attempted -- first point.
 Iteration  1 RMS(Cart)=  0.03907024 RMS(Int)=  0.00031196
 Iteration  2 RMS(Cart)=  0.00057741 RMS(Int)=  0.00000851
 Iteration  3 RMS(Cart)=  0.00000015 RMS(Int)=  0.00000851
 ClnCor:  largest displacement from symmetrization is 1.07D-10 for atom    20.
 Variable       Old X    -DE/DX   Delta X   Delta X   Delta X     New X
                                 (Linear)    (Quad)   (Total)
    R1        2.64114  -0.01362   0.00000  -0.02918  -0.02918   2.61196
    R2        2.65501  -0.01288   0.00000  -0.02865  -0.02864   2.62637
    R3        2.05638  -0.00909   0.00000  -0.02549  -0.02549   2.03089
    R4        2.63141  -0.00869   0.00000  -0.01797  -0.01798   2.61343
    R5        2.05374  -0.00827   0.00000  -0.02307  -0.02307   2.03067
    R6        2.65501  -0.01288   0.00000  -0.02865  -0.02864   2.62637
    R7        2.78236   0.01132   0.00000   0.03135   0.03135   2.81370
    R8        2.64114  -0.01362   0.00000  -0.02918  -0.02918   2.61196
    R9        2.05638  -0.00909   0.00000  -0.02549  -0.02549   2.03089
   R10        2.63141  -0.00870   0.00000  -0.01797  -0.01798   2.61343
   R11        2.05362  -0.00800   0.00000  -0.02231  -0.02231   2.03131
   R12        2.05374  -0.00827   0.00000  -0.02307  -0.02307   2.03067
   R13        2.65501  -0.01288   0.00000  -0.02865  -0.02864   2.62637
   R14        2.65501  -0.01288   0.00000  -0.02865  -0.02864   2.62637
   R15        2.64114  -0.01362   0.00000  -0.02918  -0.02918   2.61196
   R16        2.05638  -0.00909   0.00000  -0.02549  -0.02549   2.03089
   R17        2.63141  -0.00869   0.00000  -0.01797  -0.01798   2.61343
   R18        2.05374  -0.00827   0.00000  -0.02307  -0.02307   2.03067
   R19        2.63141  -0.00870   0.00000  -0.01797  -0.01798   2.61343
   R20        2.05362  -0.00800   0.00000  -0.02231  -0.02231   2.03131
   R21        2.64114  -0.01362   0.00000  -0.02918  -0.02918   2.61196
   R22        2.05638  -0.00909   0.00000  -0.02549  -0.02549   2.03089
   R23        2.05374  -0.00827   0.00000  -0.02307  -0.02307   2.03067
    A1        2.11303  -0.00056   0.00000  -0.00299  -0.00298   2.11004
    A2        2.07463   0.00226   0.00000   0.01339   0.01338   2.08801
    A3        2.09545  -0.00170   0.00000  -0.01042  -0.01043   2.08502
    A4        2.09513   0.00047   0.00000   0.00289   0.00288   2.09800
    A5        2.09263  -0.00072   0.00000  -0.00438  -0.00438   2.08825
    A6        2.09542   0.00025   0.00000   0.00149   0.00149   2.09691
    A7        2.05853   0.00192   0.00000   0.00640   0.00642   2.06495
    A8        2.11233  -0.00096   0.00000  -0.00320  -0.00321   2.10912
    A9        2.11233  -0.00096   0.00000  -0.00320  -0.00321   2.10912
   A10        2.11302  -0.00056   0.00000  -0.00299  -0.00298   2.11004
   A11        2.09545  -0.00170   0.00000  -0.01042  -0.01043   2.08502
   A12        2.07464   0.00226   0.00000   0.01338   0.01338   2.08801
   A13        2.09153  -0.00174   0.00000  -0.00619  -0.00620   2.08532
   A14        2.09583   0.00087   0.00000   0.00309   0.00310   2.09893
   A15        2.09583   0.00087   0.00000   0.00309   0.00310   2.09893
   A16        2.09513   0.00047   0.00000   0.00288   0.00287   2.09800
   A17        2.09263  -0.00072   0.00000  -0.00438  -0.00438   2.08825
   A18        2.09542   0.00025   0.00000   0.00149   0.00149   2.09691
   A19        2.11233  -0.00096   0.00000  -0.00320  -0.00321   2.10912
   A20        2.11233  -0.00096   0.00000  -0.00320  -0.00321   2.10912
   A21        2.05853   0.00192   0.00000   0.00640   0.00642   2.06495
   A22        2.11303  -0.00056   0.00000  -0.00299  -0.00298   2.11004
   A23        2.09545  -0.00170   0.00000  -0.01042  -0.01043   2.08502
   A24        2.07463   0.00226   0.00000   0.01339   0.01338   2.08801
   A25        2.09513   0.00047   0.00000   0.00289   0.00288   2.09800
   A26        2.09263  -0.00072   0.00000  -0.00438  -0.00438   2.08825
   A27        2.09542   0.00025   0.00000   0.00149   0.00149   2.09691
   A28        2.09153  -0.00174   0.00000  -0.00619  -0.00620   2.08532
   A29        2.09583   0.00087   0.00000   0.00309   0.00310   2.09893
   A30        2.09583   0.00087   0.00000   0.00309   0.00310   2.09893
   A31        2.11302  -0.00056   0.00000  -0.00299  -0.00298   2.11004
   A32        2.09545  -0.00170   0.00000  -0.01042  -0.01043   2.08502
   A33        2.07464   0.00226   0.00000   0.01338   0.01338   2.08801
   A34        2.09513   0.00047   0.00000   0.00288   0.00287   2.09800
   A35        2.09542   0.00025   0.00000   0.00149   0.00149   2.09691
   A36        2.09263  -0.00072   0.00000  -0.00438  -0.00438   2.08825
    D1        0.00111  -0.00005   0.00000  -0.00172  -0.00172  -0.00061
    D2       -3.13756   0.00007   0.00000   0.00251   0.00251  -3.13505
    D3        3.12927  -0.00012   0.00000  -0.00408  -0.00409   3.12517
    D4       -0.00941   0.00000   0.00000   0.00015   0.00014  -0.00927
    D5       -0.00055   0.00002   0.00000   0.00086   0.00086   0.00030
    D6        3.14104   0.00002   0.00000   0.00086   0.00086  -3.14129
    D7       -3.12855   0.00007   0.00000   0.00306   0.00305  -3.12551
    D8        0.01304   0.00007   0.00000   0.00306   0.00304   0.01609
    D9       -0.00055   0.00002   0.00000   0.00085   0.00085   0.00030
   D10        3.14104   0.00002   0.00000   0.00085   0.00085  -3.14129
   D11        3.13812  -0.00010   0.00000  -0.00340  -0.00341   3.13471
   D12       -0.00347  -0.00010   0.00000  -0.00340  -0.00341  -0.00688
   D13       -0.00055   0.00002   0.00000   0.00086   0.00086   0.00030
   D14       -3.12855   0.00007   0.00000   0.00306   0.00305  -3.12551
   D15        3.14104   0.00002   0.00000   0.00086   0.00086  -3.14129
   D16        0.01304   0.00007   0.00000   0.00306   0.00305   0.01609
   D17        0.93996  -0.00096   0.00000  -0.05378  -0.05378   0.88618
   D18       -2.20163  -0.00096   0.00000  -0.05378  -0.05378  -2.25541
   D19       -2.20163  -0.00096   0.00000  -0.05378  -0.05378  -2.25541
   D20        0.93996  -0.00096   0.00000  -0.05378  -0.05378   0.88618
   D21        0.00111  -0.00005   0.00000  -0.00172  -0.00172  -0.00061
   D22       -3.13756   0.00007   0.00000   0.00251   0.00251  -3.13505
   D23        3.12927  -0.00012   0.00000  -0.00408  -0.00409   3.12517
   D24       -0.00941   0.00000   0.00000   0.00015   0.00014  -0.00927
   D25       -0.00055   0.00002   0.00000   0.00085   0.00085   0.00030
   D26        3.13812  -0.00010   0.00000  -0.00340  -0.00341   3.13471
   D27        3.14104   0.00002   0.00000   0.00085   0.00085  -3.14129
   D28       -0.00347  -0.00010   0.00000  -0.00340  -0.00341  -0.00688
   D29        3.14104   0.00002   0.00000   0.00086   0.00086  -3.14129
   D30        0.01304   0.00007   0.00000   0.00306   0.00304   0.01609
   D31       -0.00055   0.00002   0.00000   0.00086   0.00086   0.00030
   D32       -3.12855   0.00007   0.00000   0.00306   0.00305  -3.12551
   D33        3.14104   0.00002   0.00000   0.00086   0.00086  -3.14129
   D34        0.01304   0.00007   0.00000   0.00306   0.00305   0.01609
   D35       -0.00055   0.00002   0.00000   0.00086   0.00086   0.00030
   D36       -3.12855   0.00007   0.00000   0.00306   0.00305  -3.12551
   D37        0.00111  -0.00005   0.00000  -0.00172  -0.00172  -0.00061
   D38       -3.13756   0.00007   0.00000   0.00251   0.00251  -3.13505
   D39        3.12927  -0.00012   0.00000  -0.00408  -0.00409   3.12517
   D40       -0.00941   0.00000   0.00000   0.00015   0.00014  -0.00927
   D41       -0.00055   0.00002   0.00000   0.00085   0.00085   0.00030
   D42        3.14104   0.00002   0.00000   0.00085   0.00085  -3.14129
   D43        3.13812  -0.00010   0.00000  -0.00340  -0.00341   3.13471
   D44       -0.00347  -0.00010   0.00000  -0.00340  -0.00341  -0.00688
   D45       -0.00055   0.00002   0.00000   0.00085   0.00085   0.00030
   D46        3.13812  -0.00010   0.00000  -0.00340  -0.00341   3.13471
   D47        3.14104   0.00002   0.00000   0.00085   0.00085  -3.14129
   D48       -0.00347  -0.00010   0.00000  -0.00340  -0.00341  -0.00688
   D49        0.00111  -0.00005   0.00000  -0.00172  -0.00172  -0.00061
   D50       -3.13756   0.00007   0.00000   0.00251   0.00251  -3.13505
   D51        3.12927  -0.00012   0.00000  -0.00408  -0.00409   3.12517
   D52       -0.00941   0.00000   0.00000   0.00015   0.00014  -0.00927
         Item               Value     Threshold  Converged?
 Maximum Force            0.013619     0.000450     NO 
 RMS     Force            0.004866     0.000300     NO 
 Maximum Displacement     0.106546     0.001800     NO 
 RMS     Displacement     0.038912     0.001200     NO 
 Predicted change in Energy=-3.389993D-03
 GradGradGradGradGradGradGradGradGradGradGradGradGradGradGradGradGradGrad

                          Input orientation:                          
 ---------------------------------------------------------------------
 Center     Atomic      Atomic             Coordinates (Angstroms)
 Number     Number       Type             X           Y           Z
 ---------------------------------------------------------------------
      1          6           0        0.011112    0.032083   -0.003367
      2          6           0        0.010809    0.033132    1.378822
      3          6           0        1.203445    0.000005   -0.716736
      4          6           0        2.396777   -0.031397   -0.005006
      5          6           0        1.205400    0.001330    2.074909
      6          6           0        2.399014   -0.031133    1.377182
      7          1           0       -0.923020    0.052124    1.910168
      8          1           0        1.206152    0.001841    3.149833
      9          1           0        3.333587   -0.049621    1.907238
     10          1           0        3.329992   -0.041433   -0.537917
     11          1           0       -0.922849    0.041614   -0.534980
     12          6           0        1.202403   -0.000703   -2.205684
     13          6           0        0.472175    0.943074   -2.918171
     14          6           0        0.470141    0.943211   -4.300359
     15          6           0        1.200449   -0.002028   -4.997329
     16          6           0        1.931634   -0.945156   -2.918296
     17          6           0        1.931733   -0.946605   -4.300485
     18          1           0       -0.086432    1.691140   -2.385872
     19          1           0       -0.096801    1.685980   -4.831016
     20          1           0        1.199697   -0.002539   -6.072253
     21          1           0        2.497932   -1.689879   -4.831230
     22          1           0        2.490986   -1.692716   -2.386071
 ---------------------------------------------------------------------
                    Distance matrix (angstroms):
                    1          2          3          4          5
     1  C    0.000000
     2  C    1.382190   0.000000
     3  C    1.389814   2.411399   0.000000
     4  C    2.386510   2.758983   1.389815   0.000000
     5  C    2.397186   1.382966   2.791646   2.397185   0.000000
     6  C    2.758983   2.389069   2.411399   1.382190   1.382965
     7  H    2.129465   1.074582   3.380118   3.833526   2.135390
     8  H    3.372196   2.136891   3.866571   3.372196   1.074925
     9  H    3.833527   3.365549   3.380119   2.129465   2.135390
    10  H    3.362457   3.833591   2.134454   1.074703   3.367875
    11  H    1.074703   2.129420   2.134454   3.362457   3.367876
    12  C    2.504086   3.777528   1.488948   2.504087   4.280594
    13  C    3.088456   4.416446   2.504086   3.624943   5.133745
    14  C    4.416446   5.769950   3.777528   4.807477   6.486276
    15  C    5.133745   6.486276   4.280594   5.133746   7.072241
    16  C    3.624943   4.807477   2.504087   3.088458   5.133746
    17  C    4.807477   6.074896   3.777529   4.416448   6.486277
    18  H    2.904878   4.114775   2.703652   3.847334   4.941948
    19  H    5.104235   6.426942   4.632543   5.697165   7.226726
    20  H    6.184279   7.545412   5.355519   6.184280   8.147165
    21  H    5.697165   6.907915   4.632544   5.104237   7.226727
    22  H    3.847334   4.827447   2.703653   2.904880   4.941949
                    6          7          8          9         10
     6  C    0.000000
     7  H    3.365549   0.000000
     8  H    2.136890   2.464280   0.000000
     9  H    1.074583   4.257824   2.464278   0.000000
    10  H    2.129420   4.908155   4.255828   2.445171   0.000000
    11  H    3.833592   2.445171   4.255829   4.908156   4.253653
    12  C    3.777529   4.632543   5.355519   4.632544   2.703653
    13  C    4.807477   5.104235   6.184279   5.697165   3.847334
    14  C    6.074896   6.426942   7.545412   6.907915   4.827447
    15  C    6.486277   7.226726   8.147165   7.226727   4.941949
    16  C    4.416448   5.697165   6.184280   5.104237   2.904880
    17  C    5.769951   6.907915   7.545413   6.426943   4.114776
    18  H    4.827446   4.673566   5.930307   5.758261   4.253082
    19  H    6.907915   6.985391   8.260022   7.757831   5.758261
    20  H    7.545413   8.260022   9.222090   8.260023   5.930308
    21  H    6.426943   7.757831   8.260023   6.985393   4.673568
    22  H    4.114776   5.758261   5.930308   4.673568   2.616551
                   11         12         13         14         15
    11  H    0.000000
    12  C    2.703652   0.000000
    13  C    2.904878   1.389814   0.000000
    14  C    4.114775   2.411399   1.382190   0.000000
    15  C    4.941948   2.791646   2.397186   1.382966   0.000000
    16  C    3.847334   1.389815   2.386510   2.758983   2.397185
    17  C    4.827446   2.411399   2.758983   2.389069   1.382965
    18  H    2.616549   2.134454   1.074703   2.129420   3.367876
    19  H    4.673566   3.380118   2.129465   1.074582   2.135390
    20  H    5.930307   3.866571   3.372196   2.136891   1.074925
    21  H    5.758261   3.380119   3.833527   3.365549   2.135390
    22  H    4.253082   2.134454   3.362457   3.833591   3.367875
                   16         17         18         19         20
    16  C    0.000000
    17  C    1.382190   0.000000
    18  H    3.362457   3.833592   0.000000
    19  H    3.833526   3.365549   2.445171   0.000000
    20  H    3.372196   2.136890   4.255829   2.464280   0.000000
    21  H    2.129465   1.074583   4.908156   4.257824   2.464278
    22  H    1.074703   2.129420   4.253653   4.908155   4.255828
                   21         22
    21  H    0.000000
    22  H    2.445171   0.000000
 Stoichiometry    C12H10
 Framework group  C2[X(C12H10)]
 Deg. of freedom    31
 Full point group                 C2      NOp   2
 Largest Abelian subgroup         C2      NOp   2
 Largest concise Abelian subgroup C2      NOp   2
                         Standard orientation:                         
 ---------------------------------------------------------------------
 Center     Atomic      Atomic             Coordinates (Angstroms)
 Number     Number       Type             X           Y           Z
 ---------------------------------------------------------------------
      1          6           0        0.511589   -1.457024   -1.078023
      2          6           0        0.511813   -2.839213   -1.079333
      3          6           0        0.000000   -0.744474    0.000000
      4          6           0       -0.511589   -1.457024    1.078023
      5          6           0        0.000000   -3.536120    0.000000
      6          6           0       -0.511814   -2.839213    1.079333
      7          1           0        0.917934   -3.369914   -1.920849
      8          1           0        0.000000   -4.611045    0.000001
      9          1           0       -0.917934   -3.369915    1.920849
     10          1           0       -0.925419   -0.924762    1.914939
     11          1           0        0.925418   -0.924761   -1.914939
     12          6           0        0.000000    0.744474    0.000000
     13          6           0       -0.511589    1.457024   -1.078023
     14          6           0       -0.511813    2.839213   -1.079333
     15          6           0        0.000000    3.536120    0.000000
     16          6           0        0.511589    1.457024    1.078023
     17          6           0        0.511814    2.839213    1.079333
     18          1           0       -0.925418    0.924761   -1.914939
     19          1           0       -0.917934    3.369914   -1.920849
     20          1           0        0.000000    4.611045    0.000001
     21          1           0        0.917934    3.369915    1.920849
     22          1           0        0.925419    0.924762    1.914939
 ---------------------------------------------------------------------
 Rotational constants (GHZ):      2.9154844      0.5455855      0.4879695
 Standard basis: 6-31G(d,p) (6D, 7F)
 There are   115 symmetry adapted cartesian basis functions of A   symmetry.
 There are   115 symmetry adapted cartesian basis functions of B   symmetry.
 There are   115 symmetry adapted basis functions of A   symmetry.
 There are   115 symmetry adapted basis functions of B   symmetry.
   230 basis functions,   406 primitive gaussians,   230 cartesian basis functions
    41 alpha electrons       41 beta electrons
       nuclear repulsion energy       603.4391711028 Hartrees.
 NAtoms=   22 NActive=   22 NUniq=   11 SFac= 4.00D+00 NAtFMM=   60 NAOKFM=F Big=F
 Integral buffers will be    131072 words long.
 Raffenetti 1 integral format.
 Two-electron integral symmetry is turned on.
 One-electron integrals computed using PRISM.
 PrsmSu:  requested number of processors reduced to:   9 ShMem   1 Linda.
 NBasis=   230 RedAO= T EigKep=  2.92D-04  NBF=   115   115
 NBsUse=   230 1.00D-06 EigRej= -1.00D+00 NBFU=   115   115
 Initial guess from the checkpoint file:  "04_24_Homework43a.chk"
 B after Tr=     0.000000    0.000000    0.000000
         Rot=    1.000000    0.000000    0.000000    0.000000 Ang=   0.00 deg.
 Initial guess orbital symmetries:
       Occupied  (A) (B) (A) (B) (B) (A) (A) (B) (B) (A) (A) (B)
                 (A) (B) (A) (A) (B) (B) (A) (A) (B) (B) (A) (B)
                 (A) (A) (B) (B) (A) (A) (B) (B) (B) (A) (A) (B)
                 (A) (B) (A) (B) (A)
       Virtual   (A) (A) (A) (A) (A) (A) (A) (A) (A) (A) (A) (A)
                 (A) (A) (A) (A) (A) (A) (A) (A) (A) (A) (A) (A)
                 (A) (A) (A) (A) (A) (A) (A) (A) (A) (A) (A) (A)
                 (A) (A) (A) (A) (A) (A) (A) (A) (A) (A) (A) (A)
                 (A) (A) (A) (A) (A) (A) (A) (A) (A) (A) (A) (A)
                 (A) (A) (A) (A) (A) (A) (A) (A) (A) (A) (A) (A)
                 (A) (A) (A) (A) (A) (A) (A) (A) (A) (A) (A) (A)
                 (A) (A) (A) (A) (A) (A) (A) (A) (A) (A) (B) (B)
                 (B) (B) (B) (B) (B) (B) (B) (B) (B) (B) (B) (B)
                 (B) (B) (B) (B) (B) (B) (B) (B) (B) (B) (B) (B)
                 (B) (B) (B) (B) (B) (B) (B) (B) (B) (B) (B) (B)
                 (B) (B) (B) (B) (B) (B) (B) (B) (B) (B) (B) (B)
                 (B) (B) (B) (B) (B) (B) (B) (B) (B) (B) (B) (B)
                 (B) (B) (B) (B) (B) (B) (B) (B) (B) (B) (B) (B)
                 (B) (B) (B) (B) (B) (B) (B) (B) (B) (B) (B) (B)
                 (B) (B) (B) (B) (B) (B) (B) (B) (B)
 ExpMin= 1.61D-01 ExpMax= 3.05D+03 ExpMxC= 4.57D+02 IAcc=1 IRadAn=         1 AccDes= 0.00D+00
 Harris functional with IExCor=  205 and IRadAn=       1 diagonalized for initial guess.
 HarFok:  IExCor=  205 AccDes= 0.00D+00 IRadAn=         1 IDoV= 1 UseB2=F ITyADJ=14
 ICtDFT=  3500011 ScaDFX=  1.000000  1.000000  1.000000  1.000000
 FoFCou: FMM=F IPFlag=           0 FMFlag=      100000 FMFlg1=           0
         NFxFlg=           0 DoJE=T BraDBF=F KetDBF=T FulRan=T
         wScrn=  0.000000 ICntrl=     500 IOpCl=  0 I1Cent=   200000004 NGrid=           0
         NMat0=    1 NMatS0=      1 NMatT0=    0 NMatD0=    1 NMtDS0=    0 NMtDT0=    0
 Petite list used in FoFCou.
 Requested convergence on RMS density matrix=1.00D-08 within 128 cycles.
 Requested convergence on MAX density matrix=1.00D-06.
 Requested convergence on             energy=1.00D-06.
 No special actions if energy rises.
 Integral accuracy reduced to 1.0D-05 until final iterations.
 Initial convergence to 1.0D-05 achieved.  Increase integral accuracy.
 SCF Done:  E(RHF) =  -460.271649254     A.U. after   13 cycles
            NFock= 13  Conv=0.34D-08     -V/T= 2.0006
 PrsmSu:  requested number of processors reduced to:   9 ShMem   1 Linda.
 Calling FoFJK, ICntrl=      2127 FMM=F ISym2X=1 I1Cent= 0 IOpClX= 0 NMat=1 NMatS=1 NMatT=0.
 ***** Axes restored to original set *****
 -------------------------------------------------------------------
 Center     Atomic                   Forces (Hartrees/Bohr)
 Number     Number              X              Y              Z
 -------------------------------------------------------------------
      1        6          -0.002064565    0.000744540   -0.001292203
      2        6          -0.000936793    0.000002274    0.000816108
      3        6           0.000000354   -0.000000082   -0.000001161
      4        6           0.002062389   -0.000745757   -0.001294640
      5        6           0.000000938    0.000000861    0.001797584
      6        6           0.000938342   -0.000001494    0.000814531
      7        1          -0.000841438    0.000021465    0.000614768
      8        1           0.000000339    0.000000300    0.000627924
      9        1           0.000842178   -0.000020883    0.000613518
     10        1           0.000714942    0.000073569   -0.000457564
     11        1          -0.000715471   -0.000074011   -0.000456379
     12        6           0.000000276   -0.000000238    0.000001161
     13        6          -0.001818724    0.001226541    0.001293986
     14        6          -0.000555405    0.000755136   -0.000815423
     15        6          -0.000001453   -0.000000599   -0.001797584
     16        6           0.001820310   -0.001225024    0.001292858
     17        6           0.000554498   -0.000756243   -0.000815216
     18        1          -0.000362255    0.000621044    0.000456874
     19        1          -0.000514462    0.000666763   -0.000614146
     20        1          -0.000000500   -0.000000218   -0.000627924
     21        1           0.000513532   -0.000667249   -0.000614140
     22        1           0.000362967   -0.000620694    0.000457070
 -------------------------------------------------------------------
 Cartesian Forces:  Max     0.002064565 RMS     0.000840446

 GradGradGradGradGradGradGradGradGradGradGradGradGradGradGradGradGradGrad
 Berny optimization.
 Using GEDIIS/GDIIS optimizer.
 FormGI is forming the generalized inverse of G from B-inverse, IUseBI=4.
 Internal  Forces:  Max     0.002641967 RMS     0.000914590
 Search for a local minimum.
 Step number   2 out of a maximum of  121
 All quantities printed in internal units (Hartrees-Bohrs-Radians)
 Mixed Optimization -- En-DIIS/RFO-DIIS
 Update second derivatives using D2CorX and points    1    2
 DE= -2.94D-03 DEPred=-3.39D-03 R= 8.68D-01
 TightC=F SS=  1.41D+00  RLast= 1.68D-01 DXNew= 5.0454D-01 5.0271D-01
 Trust test= 8.68D-01 RLast= 1.68D-01 DXMaxT set to 5.03D-01
 ITU=  1  0
 Use linear search instead of GDIIS.
     Eigenvalues ---    0.01114   0.01747   0.01747   0.02037   0.02037
     Eigenvalues ---    0.02068   0.02069   0.02077   0.02077   0.02114
     Eigenvalues ---    0.02114   0.02150   0.02150   0.02156   0.02156
     Eigenvalues ---    0.02171   0.02171   0.02188   0.02188   0.15942
     Eigenvalues ---    0.15998   0.15998   0.15998   0.16000   0.16000
     Eigenvalues ---    0.16000   0.16000   0.16000   0.16011   0.21962
     Eigenvalues ---    0.22000   0.22000   0.22000   0.23359   0.23472
     Eigenvalues ---    0.25000   0.25000   0.34378   0.35023   0.35023
     Eigenvalues ---    0.35023   0.35096   0.35186   0.35186   0.35186
     Eigenvalues ---    0.35193   0.35198   0.35910   0.41500   0.41500
     Eigenvalues ---    0.41623   0.41767   0.45090   0.45090   0.45999
     Eigenvalues ---    0.46016   0.46054   0.46747   0.46747   0.54712
 RFO step:  Lambda=-2.19155957D-04 EMin= 1.11372867D-02
 Quartic linear search produced a step of -0.10406.
 Iteration  1 RMS(Cart)=  0.03204437 RMS(Int)=  0.00025041
 Iteration  2 RMS(Cart)=  0.00041553 RMS(Int)=  0.00000063
 Iteration  3 RMS(Cart)=  0.00000006 RMS(Int)=  0.00000063
 ClnCor:  largest displacement from symmetrization is 7.44D-11 for atom    20.
 Variable       Old X    -DE/DX   Delta X   Delta X   Delta X     New X
                                 (Linear)    (Quad)   (Total)
    R1        2.61196   0.00264   0.00304   0.00145   0.00448   2.61644
    R2        2.62637   0.00262   0.00298   0.00165   0.00463   2.63099
    R3        2.03089   0.00085   0.00265  -0.00109   0.00157   2.03246
    R4        2.61343   0.00238   0.00187   0.00224   0.00411   2.61754
    R5        2.03067   0.00104   0.00240  -0.00031   0.00209   2.03276
    R6        2.62637   0.00262   0.00298   0.00165   0.00463   2.63099
    R7        2.81370   0.00178  -0.00326   0.00850   0.00523   2.81894
    R8        2.61196   0.00264   0.00304   0.00145   0.00448   2.61644
    R9        2.03089   0.00085   0.00265  -0.00109   0.00157   2.03246
   R10        2.61343   0.00238   0.00187   0.00224   0.00412   2.61754
   R11        2.03131   0.00063   0.00232  -0.00125   0.00107   2.03239
   R12        2.03067   0.00104   0.00240  -0.00031   0.00209   2.03276
   R13        2.62637   0.00262   0.00298   0.00165   0.00463   2.63099
   R14        2.62637   0.00262   0.00298   0.00165   0.00463   2.63099
   R15        2.61196   0.00264   0.00304   0.00145   0.00448   2.61644
   R16        2.03089   0.00085   0.00265  -0.00109   0.00157   2.03246
   R17        2.61343   0.00238   0.00187   0.00224   0.00411   2.61754
   R18        2.03067   0.00104   0.00240  -0.00031   0.00209   2.03276
   R19        2.61343   0.00238   0.00187   0.00224   0.00412   2.61754
   R20        2.03131   0.00063   0.00232  -0.00125   0.00107   2.03239
   R21        2.61196   0.00264   0.00304   0.00145   0.00448   2.61644
   R22        2.03089   0.00085   0.00265  -0.00109   0.00157   2.03246
   R23        2.03067   0.00104   0.00240  -0.00031   0.00209   2.03276
    A1        2.11004  -0.00043   0.00031  -0.00204  -0.00173   2.10832
    A2        2.08801   0.00026  -0.00139   0.00283   0.00143   2.08945
    A3        2.08502   0.00017   0.00109  -0.00083   0.00026   2.08528
    A4        2.09800   0.00010  -0.00030   0.00074   0.00045   2.09845
    A5        2.08825   0.00007   0.00046  -0.00009   0.00036   2.08862
    A6        2.09691  -0.00017  -0.00015  -0.00066  -0.00081   2.09610
    A7        2.06495   0.00052  -0.00067   0.00286   0.00219   2.06714
    A8        2.10912  -0.00026   0.00033  -0.00143  -0.00110   2.10802
    A9        2.10912  -0.00026   0.00033  -0.00143  -0.00110   2.10802
   A10        2.11004  -0.00043   0.00031  -0.00204  -0.00173   2.10831
   A11        2.08502   0.00017   0.00109  -0.00083   0.00026   2.08528
   A12        2.08801   0.00026  -0.00139   0.00283   0.00143   2.08945
   A13        2.08532   0.00015   0.00065  -0.00028   0.00037   2.08570
   A14        2.09893  -0.00008  -0.00032   0.00014  -0.00019   2.09874
   A15        2.09893  -0.00008  -0.00032   0.00014  -0.00019   2.09874
   A16        2.09800   0.00010  -0.00030   0.00074   0.00045   2.09845
   A17        2.08825   0.00007   0.00046  -0.00009   0.00036   2.08862
   A18        2.09691  -0.00017  -0.00015  -0.00066  -0.00081   2.09610
   A19        2.10912  -0.00026   0.00033  -0.00143  -0.00110   2.10802
   A20        2.10912  -0.00026   0.00033  -0.00143  -0.00110   2.10802
   A21        2.06495   0.00052  -0.00067   0.00286   0.00219   2.06714
   A22        2.11004  -0.00043   0.00031  -0.00204  -0.00173   2.10832
   A23        2.08502   0.00017   0.00109  -0.00083   0.00026   2.08528
   A24        2.08801   0.00026  -0.00139   0.00283   0.00143   2.08945
   A25        2.09800   0.00010  -0.00030   0.00074   0.00045   2.09845
   A26        2.08825   0.00007   0.00046  -0.00009   0.00036   2.08862
   A27        2.09691  -0.00017  -0.00015  -0.00066  -0.00081   2.09610
   A28        2.08532   0.00015   0.00065  -0.00028   0.00037   2.08570
   A29        2.09893  -0.00008  -0.00032   0.00014  -0.00019   2.09874
   A30        2.09893  -0.00008  -0.00032   0.00014  -0.00019   2.09874
   A31        2.11004  -0.00043   0.00031  -0.00204  -0.00173   2.10831
   A32        2.08502   0.00017   0.00109  -0.00083   0.00026   2.08528
   A33        2.08801   0.00026  -0.00139   0.00283   0.00143   2.08945
   A34        2.09800   0.00010  -0.00030   0.00074   0.00045   2.09845
   A35        2.09691  -0.00017  -0.00015  -0.00066  -0.00081   2.09610
   A36        2.08825   0.00007   0.00046  -0.00009   0.00036   2.08862
    D1       -0.00061   0.00002   0.00018   0.00041   0.00059  -0.00002
    D2       -3.13505   0.00002  -0.00026   0.00109   0.00083  -3.13422
    D3        3.12517  -0.00003   0.00043  -0.00213  -0.00170   3.12348
    D4       -0.00927  -0.00003  -0.00001  -0.00144  -0.00145  -0.01073
    D5        0.00030  -0.00001  -0.00009  -0.00020  -0.00029   0.00001
    D6       -3.14129  -0.00001  -0.00009  -0.00020  -0.00029  -3.14158
    D7       -3.12551   0.00004  -0.00032   0.00229   0.00198  -3.12353
    D8        0.01609   0.00004  -0.00032   0.00229   0.00198   0.01806
    D9        0.00030  -0.00001  -0.00009  -0.00020  -0.00029   0.00001
   D10       -3.14129  -0.00001  -0.00009  -0.00020  -0.00029  -3.14158
   D11        3.13471  -0.00001   0.00035  -0.00089  -0.00053   3.13418
   D12       -0.00688  -0.00001   0.00035  -0.00089  -0.00053  -0.00741
   D13        0.00030  -0.00001  -0.00009  -0.00020  -0.00029   0.00001
   D14       -3.12551   0.00004  -0.00032   0.00229   0.00198  -3.12353
   D15       -3.14129  -0.00001  -0.00009  -0.00020  -0.00029  -3.14158
   D16        0.01609   0.00004  -0.00032   0.00229   0.00198   0.01806
   D17        0.88618  -0.00058   0.00560  -0.05822  -0.05262   0.83356
   D18       -2.25541  -0.00058   0.00560  -0.05822  -0.05262  -2.30803
   D19       -2.25541  -0.00058   0.00560  -0.05822  -0.05262  -2.30803
   D20        0.88618  -0.00058   0.00560  -0.05822  -0.05262   0.83356
   D21       -0.00061   0.00002   0.00018   0.00041   0.00059  -0.00002
   D22       -3.13505   0.00002  -0.00026   0.00109   0.00083  -3.13422
   D23        3.12517  -0.00003   0.00043  -0.00213  -0.00170   3.12348
   D24       -0.00927  -0.00003  -0.00001  -0.00144  -0.00145  -0.01073
   D25        0.00030  -0.00001  -0.00009  -0.00020  -0.00029   0.00001
   D26        3.13471  -0.00001   0.00035  -0.00089  -0.00053   3.13418
   D27       -3.14129  -0.00001  -0.00009  -0.00020  -0.00029  -3.14158
   D28       -0.00688  -0.00001   0.00035  -0.00089  -0.00053  -0.00741
   D29       -3.14129  -0.00001  -0.00009  -0.00020  -0.00029  -3.14158
   D30        0.01609   0.00004  -0.00032   0.00229   0.00198   0.01806
   D31        0.00030  -0.00001  -0.00009  -0.00020  -0.00029   0.00001
   D32       -3.12551   0.00004  -0.00032   0.00229   0.00198  -3.12353
   D33       -3.14129  -0.00001  -0.00009  -0.00020  -0.00029  -3.14158
   D34        0.01609   0.00004  -0.00032   0.00229   0.00198   0.01806
   D35        0.00030  -0.00001  -0.00009  -0.00020  -0.00029   0.00001
   D36       -3.12551   0.00004  -0.00032   0.00229   0.00198  -3.12353
[...]
                   21         22
    21  H    0.000000
    22  H    2.448724   0.000000
 Stoichiometry    C12H10
 Framework group  C2[X(C12H10)]
 Deg. of freedom    31
 Full point group                 C2      NOp   2
 Largest Abelian subgroup         C2      NOp   2
 Largest concise Abelian subgroup C2      NOp   2
                         Standard orientation:                         
 ---------------------------------------------------------------------
 Center     Atomic      Atomic             Coordinates (Angstroms)
 Number     Number       Type             X           Y           Z
 ---------------------------------------------------------------------
      1          6           0        0.462682   -1.459169   -1.102856
      2          6           0        0.462470   -2.843621   -1.103277
      3          6           0        0.000000   -0.745657    0.000000
      4          6           0       -0.462682   -1.459169    1.102856
      5          6           0        0.000000   -3.541586    0.000000
      6          6           0       -0.462470   -2.843621    1.103277
      7          1           0        0.830403   -3.376197   -1.962703
      8          1           0        0.000000   -4.617265    0.000000
      9          1           0       -0.830403   -3.376197    1.962703
     10          1           0       -0.843039   -0.927513    1.956886
     11          1           0        0.843039   -0.927513   -1.956886
     12          6           0        0.000000    0.745657    0.000000
     13          6           0       -0.462682    1.459169   -1.102856
     14          6           0       -0.462470    2.843621   -1.103277
     15          6           0        0.000000    3.541586    0.000000
     16          6           0        0.462682    1.459169    1.102856
     17          6           0        0.462470    2.843621    1.103277
     18          1           0       -0.843039    0.927513   -1.956886
     19          1           0       -0.830403    3.376197   -1.962703
     20          1           0        0.000000    4.617265    0.000000
     21          1           0        0.830403    3.376197    1.962703
     22          1           0        0.843039    0.927513    1.956886
 ---------------------------------------------------------------------
 Rotational constants (GHZ):      2.9051088      0.5473692      0.4836737

 **********************************************************************

            Population analysis using the SCF density.

 **********************************************************************

 Orbital symmetries:
       Occupied  (A) (B) (A) (B) (B) (A) (A) (B) (B) (A) (A) (B)
                 (A) (B) (A) (A) (B) (B) (A) (A) (B) (B) (A) (B)
                 (A) (A) (B) (B) (A) (A) (B) (B) (B) (A) (A) (B)
                 (A) (B) (A) (B) (A)
       Virtual   (B) (A) (B) (A) (B) (A) (A) (B) (A) (B) (A) (A)
                 (B) (B) (B) (A) (B) (A) (A) (B) (A) (A) (B) (B)
                 (B) (A) (B) (A) (A) (B) (A) (B) (A) (B) (A) (A)
                 (B) (B) (B) (A) (B) (A) (B) (A) (B) (A) (A) (A)
                 (B) (B) (A) (A) (B) (B) (A) (B) (A) (B) (A) (B)
                 (A) (B) (B) (A) (B) (B) (B) (A) (A) (B) (A) (B)
                 (A) (B) (A) (A) (B) (B) (A) (A) (B) (A) (B) (A)
                 (B) (B) (A) (B) (A) (B) (A) (B) (B) (A) (A) (B)
                 (A) (A) (A) (A) (B) (B) (A) (B) (A) (B) (A) (B)
                 (B) (A) (A) (B) (B) (A) (A) (B) (B) (B) (A) (A)
                 (B) (A) (B) (A) (B) (B) (A) (A) (B) (A) (A) (B)
                 (B) (A) (B) (A) (B) (B) (A) (A) (A) (B) (B) (B)
                 (A) (A) (B) (A) (B) (A) (B) (A) (A) (B) (B) (A)
                 (B) (A) (B) (A) (B) (B) (A) (A) (B) (B) (A) (A)
                 (B) (A) (A) (B) (B) (A) (B) (A) (B) (A) (B) (A)
                 (B) (A) (B) (A) (A) (B) (B) (A) (B)
 The electronic state is 1-A.
 Alpha  occ. eigenvalues --  -11.24032 -11.23963 -11.23056 -11.23056 -11.23023
 Alpha  occ. eigenvalues --  -11.23023 -11.22857 -11.22857 -11.22833 -11.22832
 Alpha  occ. eigenvalues --  -11.22803 -11.22803  -1.16785  -1.14094  -1.05024
 Alpha  occ. eigenvalues --   -1.01717  -1.00954  -0.98132  -0.84739  -0.83789
 Alpha  occ. eigenvalues --   -0.80958  -0.78776  -0.71655  -0.68077  -0.64858
 Alpha  occ. eigenvalues --   -0.63465  -0.61358  -0.60557  -0.58681  -0.58089
 Alpha  occ. eigenvalues --   -0.57983  -0.51745  -0.51153  -0.49837  -0.48807
 Alpha  occ. eigenvalues --   -0.47983  -0.47659  -0.35995  -0.33384  -0.33207
 Alpha  occ. eigenvalues --   -0.29982
 Alpha virt. eigenvalues --    0.11651   0.14403   0.14591   0.18217   0.24428
 Alpha virt. eigenvalues --    0.24512   0.28190   0.30033   0.30241   0.31883
 Alpha virt. eigenvalues --    0.32863   0.33267   0.34516   0.34891   0.37621
 Alpha virt. eigenvalues --    0.38148   0.44032   0.45023   0.47128   0.49205
 Alpha virt. eigenvalues --    0.49690   0.50501   0.52309   0.55313   0.57599
 Alpha virt. eigenvalues --    0.62599   0.70503   0.73852   0.74699   0.74983
 Alpha virt. eigenvalues --    0.76631   0.76942   0.77165   0.78155   0.79477
 Alpha virt. eigenvalues --    0.81705   0.82361   0.83228   0.83369   0.84024
 Alpha virt. eigenvalues --    0.84249   0.84476   0.84703   0.85143   0.86929
 Alpha virt. eigenvalues --    0.87139   0.89638   0.92397   0.92705   0.93190
 Alpha virt. eigenvalues --    0.97540   1.00601   1.04118   1.06848   1.06958
 Alpha virt. eigenvalues --    1.08169   1.08578   1.09034   1.09457   1.09972
 Alpha virt. eigenvalues --    1.10125   1.13507   1.14741   1.16499   1.18707
 Alpha virt. eigenvalues --    1.20690   1.20960   1.21623   1.23910   1.27664
 Alpha virt. eigenvalues --    1.29684   1.31642   1.31743   1.35166   1.35709
 Alpha virt. eigenvalues --    1.40179   1.42901   1.43559   1.46653   1.47427
 Alpha virt. eigenvalues --    1.52534   1.54967   1.57385   1.60717   1.60823
 Alpha virt. eigenvalues --    1.66835   1.67753   1.68339   1.68643   1.69035
 Alpha virt. eigenvalues --    1.70709   1.71007   1.72727   1.73578   1.76033
 Alpha virt. eigenvalues --    1.91810   2.00235   2.03734   2.08483   2.09981
 Alpha virt. eigenvalues --    2.10397   2.13481   2.15920   2.16315   2.20412
 Alpha virt. eigenvalues --    2.22146   2.25995   2.26816   2.27128   2.27599
 Alpha virt. eigenvalues --    2.29482   2.29501   2.30069   2.30085   2.31232
 Alpha virt. eigenvalues --    2.32763   2.38329   2.38898   2.39028   2.40116
 Alpha virt. eigenvalues --    2.51501   2.54667   2.57575   2.62482   2.63311
 Alpha virt. eigenvalues --    2.64749   2.65275   2.68791   2.70376   2.70600
 Alpha virt. eigenvalues --    2.71097   2.71350   2.73260   2.73850   2.74534
 Alpha virt. eigenvalues --    2.77923   2.78176   2.80888   2.80933   2.83393
 Alpha virt. eigenvalues --    2.84400   2.84478   2.85913   2.86814   2.88021
 Alpha virt. eigenvalues --    2.88159   2.94265   2.94384   2.96212   2.97908
 Alpha virt. eigenvalues --    3.01944   3.01977   3.07854   3.08767   3.09104
 Alpha virt. eigenvalues --    3.15454   3.18019   3.19843   3.30220   3.31975
 Alpha virt. eigenvalues --    3.43347   3.45516   3.45571   3.56381   3.58053
 Alpha virt. eigenvalues --    3.62884   3.62926   3.64205   3.64618   3.73113
 Alpha virt. eigenvalues --    3.80249   3.81811   3.85509   3.92185   3.92240
 Alpha virt. eigenvalues --    4.30056   4.36337   4.57064   4.57252   4.58392
 Alpha virt. eigenvalues --    4.58804   4.59018   4.62451   4.80763   4.87442
 Alpha virt. eigenvalues --    4.87539   4.92572   5.21825   5.34052
          Condensed to atoms (all electrons):
               1          2          3          4          5          6
     1  C    4.846405   0.543114   0.561682  -0.038163  -0.049530  -0.038197
     2  C    0.543114   4.833465  -0.043773  -0.038197   0.555442  -0.044958
     3  C    0.561682  -0.043773   4.795247   0.561682  -0.029540  -0.043773
     4  C   -0.038163  -0.038197   0.561682   4.846405  -0.049530   0.543114
     5  C   -0.049530   0.555442  -0.029540  -0.049530   4.828499   0.555442
     6  C   -0.038197  -0.044958  -0.043773   0.543114   0.555442   4.833465
     7  H   -0.027764   0.393274   0.001790   0.000449  -0.029664   0.002366
     8  H    0.002466  -0.029781   0.000335   0.002466   0.394877  -0.029781
     9  H    0.000449   0.002366   0.001790  -0.027764  -0.029664   0.393274
    10  H    0.002844   0.000177  -0.033860   0.393035   0.002484  -0.027999
    11  H    0.393035  -0.027999  -0.033860   0.002844   0.002484   0.000177
    12  C   -0.044113   0.004040   0.357474  -0.044113   0.000242   0.004040
    13  C   -0.007622   0.000117  -0.044113   0.002651   0.000002  -0.000093
    14  C    0.000117   0.000000   0.004040  -0.000093   0.000000   0.000001
    15  C    0.000002   0.000000   0.000242   0.000002   0.000000   0.000000
    16  C    0.002651  -0.000093  -0.044113  -0.007622   0.000002   0.000117
    17  C   -0.000093   0.000001   0.004040   0.000117   0.000000   0.000000
    18  H    0.002384  -0.000029  -0.001089   0.000089  -0.000004  -0.000016
    19  H   -0.000003   0.000000  -0.000132   0.000001   0.000000   0.000000
    20  H    0.000000   0.000000   0.000003   0.000000   0.000000   0.000000
    21  H    0.000001   0.000000  -0.000132  -0.000003   0.000000   0.000000
    22  H    0.000089  -0.000016  -0.001089   0.002384  -0.000004  -0.000029
               7          8          9         10         11         12
     1  C   -0.027764   0.002466   0.000449   0.002844   0.393035  -0.044113
     2  C    0.393274  -0.029781   0.002366   0.000177  -0.027999   0.004040
     3  C    0.001790   0.000335   0.001790  -0.033860  -0.033860   0.357474
     4  C    0.000449   0.002466  -0.027764   0.393035   0.002844  -0.044113
     5  C   -0.029664   0.394877  -0.029664   0.002484   0.002484   0.000242
     6  C    0.002366  -0.029781   0.393274  -0.027999   0.000177   0.004040
     7  H    0.514091  -0.001967  -0.000132   0.000012  -0.002058  -0.000132
     8  H   -0.001967   0.514637  -0.001967  -0.000125  -0.000125   0.000003
     9  H   -0.000132  -0.001967   0.514091  -0.002058   0.000012  -0.000132
    10  H    0.000012  -0.000125  -0.002058   0.508995  -0.000131  -0.001089
    11  H   -0.002058  -0.000125   0.000012  -0.000131   0.508995  -0.001089
    12  C   -0.000132   0.000003  -0.000132  -0.001089  -0.001089   4.795247
    13  C   -0.000003   0.000000   0.000001   0.000089   0.002384   0.561682
    14  C    0.000000   0.000000   0.000000  -0.000016  -0.000029  -0.043773
    15  C    0.000000   0.000000   0.000000  -0.000004  -0.000004  -0.029540
    16  C    0.000001   0.000000  -0.000003   0.002384   0.000089   0.561682
    17  C    0.000000   0.000000   0.000000  -0.000029  -0.000016  -0.043773
    18  H    0.000003   0.000000   0.000000   0.000005   0.000400  -0.033860
    19  H    0.000000   0.000000   0.000000   0.000000   0.000003   0.001790
    20  H    0.000000   0.000000   0.000000   0.000000   0.000000   0.000335
    21  H    0.000000   0.000000   0.000000   0.000003   0.000000   0.001790
    22  H    0.000000   0.000000   0.000003   0.000400   0.000005  -0.033860
              13         14         15         16         17         18
     1  C   -0.007622   0.000117   0.000002   0.002651  -0.000093   0.002384
     2  C    0.000117   0.000000   0.000000  -0.000093   0.000001  -0.000029
     3  C   -0.044113   0.004040   0.000242  -0.044113   0.004040  -0.001089
     4  C    0.002651  -0.000093   0.000002  -0.007622   0.000117   0.000089
     5  C    0.000002   0.000000   0.000000   0.000002   0.000000  -0.000004
     6  C   -0.000093   0.000001   0.000000   0.000117   0.000000  -0.000016
     7  H   -0.000003   0.000000   0.000000   0.000001   0.000000   0.000003
     8  H    0.000000   0.000000   0.000000   0.000000   0.000000   0.000000
     9  H    0.000001   0.000000   0.000000  -0.000003   0.000000   0.000000
    10  H    0.000089  -0.000016  -0.000004   0.002384  -0.000029   0.000005
    11  H    0.002384  -0.000029  -0.000004   0.000089  -0.000016   0.000400
    12  C    0.561682  -0.043773  -0.029540   0.561682  -0.043773  -0.033860
    13  C    4.846405   0.543114  -0.049530  -0.038163  -0.038197   0.393035
    14  C    0.543114   4.833465   0.555442  -0.038197  -0.044958  -0.027999
    15  C   -0.049530   0.555442   4.828499  -0.049530   0.555442   0.002484
    16  C   -0.038163  -0.038197  -0.049530   4.846405   0.543114   0.002844
    17  C   -0.038197  -0.044958   0.555442   0.543114   4.833465   0.000177
    18  H    0.393035  -0.027999   0.002484   0.002844   0.000177   0.508995
    19  H   -0.027764   0.393274  -0.029664   0.000449   0.002366  -0.002058
    20  H    0.002466  -0.029781   0.394877   0.002466  -0.029781  -0.000125
    21  H    0.000449   0.002366  -0.029664  -0.027764   0.393274   0.000012
    22  H    0.002844   0.000177   0.002484   0.393035  -0.027999  -0.000131
              19         20         21         22
     1  C   -0.000003   0.000000   0.000001   0.000089
     2  C    0.000000   0.000000   0.000000  -0.000016
     3  C   -0.000132   0.000003  -0.000132  -0.001089
     4  C    0.000001   0.000000  -0.000003   0.002384
     5  C    0.000000   0.000000   0.000000  -0.000004
     6  C    0.000000   0.000000   0.000000  -0.000029
     7  H    0.000000   0.000000   0.000000   0.000000
     8  H    0.000000   0.000000   0.000000   0.000000
     9  H    0.000000   0.000000   0.000000   0.000003
    10  H    0.000000   0.000000   0.000003   0.000400
    11  H    0.000003   0.000000   0.000000   0.000005
    12  C    0.001790   0.000335   0.001790  -0.033860
    13  C   -0.027764   0.002466   0.000449   0.002844
    14  C    0.393274  -0.029781   0.002366   0.000177
    15  C   -0.029664   0.394877  -0.029664   0.002484
    16  C    0.000449   0.002466  -0.027764   0.393035
    17  C    0.002366  -0.029781   0.393274  -0.027999
    18  H   -0.002058  -0.000125   0.000012  -0.000131
    19  H    0.514091  -0.001967  -0.000132   0.000012
    20  H   -0.001967   0.514637  -0.001967  -0.000125
    21  H   -0.000132  -0.001967   0.514091  -0.002058
    22  H    0.000012  -0.000125  -0.002058   0.508995
 Mulliken charges:
               1
     1  C   -0.149754
     2  C   -0.147150
     3  C   -0.012853
     4  C   -0.149754
     5  C   -0.151535
     6  C   -0.147150
     7  H    0.149735
     8  H    0.148962
     9  H    0.149735
    10  H    0.154882
    11  H    0.154882
    12  C   -0.012853
    13  C   -0.149754
    14  C   -0.147150
    15  C   -0.151535
    16  C   -0.149754
    17  C   -0.147150
    18  H    0.154882
    19  H    0.149735
    20  H    0.148962
    21  H    0.149735
    22  H    0.154882
 Sum of Mulliken charges =   0.00000
 Mulliken charges with hydrogens summed into heavy atoms:
               1
     1  C    0.005128
     2  C    0.002584
     3  C   -0.012853
     4  C    0.005128
     5  C   -0.002573
     6  C    0.002584
    12  C   -0.012853
    13  C    0.005128
    14  C    0.002584
    15  C   -0.002573
    16  C    0.005128
    17  C    0.002584
 Electronic spatial extent (au):  <R**2>=           2287.3646
 Charge=              0.0000 electrons
 Dipole moment (field-independent basis, Debye):
    X=              0.0000    Y=              0.0000    Z=              0.0000  Tot=              0.0000
 Quadrupole moment (field-independent basis, Debye-Ang):
   XX=            -74.5830   YY=            -61.2409   ZZ=            -63.4895
   XY=              0.0000   XZ=              0.0000   YZ=              0.0000
 Traceless Quadrupole moment (field-independent basis, Debye-Ang):
   XX=             -8.1452   YY=              5.1969   ZZ=              2.9483
   XY=              0.0000   XZ=              0.0000   YZ=              0.0000
 Octapole moment (field-independent basis, Debye-Ang**2):
  XXX=              0.0000  YYY=              0.0000  ZZZ=              0.0000  XYY=              0.0000
  XXY=              0.0000  XXZ=              0.0000  XZZ=              0.0000  YZZ=              0.0000
  YYZ=              0.0000  XYZ=             13.1563
 Hexadecapole moment (field-independent basis, Debye-Ang**3):
 XXXX=           -164.5559 YYYY=          -2261.2424 ZZZZ=           -471.5270 XXXY=              0.0000
 XXXZ=              0.0000 YYYX=              0.0000 YYYZ=              0.0000 ZZZX=              0.0000
 ZZZY=              0.0000 XXYY=           -484.4591 XXZZ=           -104.8489 YYZZ=           -467.5745
 XXYZ=              0.0000 YYXZ=              0.0000 ZZXY=              0.0000
 N-N= 6.026269897460D+02 E-N=-2.276937993673D+03  KE= 4.598719311375D+02
 Symmetry A    KE= 2.310900689142D+02
 Symmetry B    KE= 2.287818622233D+02
 B after Tr=     0.000000    0.000000    0.000000
         Rot=    1.000000    0.000000    0.000000    0.000000 Ang=   0.00 deg.
 Final structure in terms of initial Z-matrix:
 C
 C,1,B1
 C,1,B2,2,A2
 C,3,B3,1,A3,2,D3,0
 C,2,B4,1,A4,3,D4,0
 C,5,B5,2,A5,1,D5,0
 H,2,B6,1,A6,3,D6,0
 H,5,B7,2,A7,1,D7,0
 H,6,B8,5,A8,2,D8,0
 H,4,B9,3,A9,1,D9,0
 H,1,B10,2,A10,3,D10,0
 C,3,B11,1,A11,2,D11,0
 C,12,B12,3,A12,1,D12,0
 C,13,B13,12,A13,3,D13,0
 C,14,B14,13,A14,12,D14,0
 C,12,B15,3,A15,1,D15,0
 C,15,B16,14,A16,13,D16,0
 H,13,B17,12,A17,3,D17,0
 H,14,B18,13,A18,12,D18,0
 H,15,B19,14,A19,13,D19,0
 H,17,B20,15,A20,14,D20,0
 H,16,B21,12,A21,3,D21,0
      Variables:
 B1=1.38445229
 B2=1.39264711
 A2=120.83262787
 B3=1.39264708
 A3=118.36006323
 D3=0.01729062
 B4=1.38501035
 A4=120.24847846
 D4=-0.03469492
 B5=1.38501036
 A5=119.47771033
 D5=0.01717974
 B6=1.07592939
 A6=119.6817471
 D6=-179.58342705
 B7=1.07567919
 A7=120.26114288
 D7=-179.98281931
 B8=1.07592939
 A8=120.0682332
 D8=179.56416058
 B9=1.07549821
 A9=119.54250774
 D9=-178.75395993
 B10=1.0754982
 A10=119.6135423
 D10=178.77038181
 B11=1.49131341
 A11=120.81996873
 D11=-179.98271187
 B12=1.39264711
 A12=120.81996873
 D12=45.51911777
 B13=1.38445229
 A13=120.83262787
 D13=-179.98271187
 B14=1.38501035
 A14=120.24847846
 D14=-0.03469492
 B15=1.39264708
 A15=120.81996803
 D15=-134.48088478
 B16=1.38501036
 A16=119.47771033
 D16=0.01717974
 B17=1.0754982
 A17=119.54250804
 D17=1.24604125
 B18=1.07592939
 A18=119.6817471
 D18=-179.58342705
 B19=1.07567919
 A19=120.26114288
 D19=-179.98281931
 B20=1.07592939
 A20=120.0682332
 D20=179.56416058
 B21=1.07549821
 A21=119.54250774
 D21=1.24604257
 1\1\GINC-COMPUTE-1-21\FOpt\RHF\6-31G(d,p)\C12H10\SGN228\22-Apr-2015\0\
 \#n RHF/6-31G(d,p) Opt\\04_24_Homework43a\\0,1\C,0.0111052793,0.086933
 8637,-0.0012480568\C,0.0117952347,0.0879712283,1.3832036772\C,1.203446
 2834,0.0000052283,-0.7155535343\C,2.3967861664,-0.0862457828,-0.002835
 7853\C,1.2054033925,0.0013329816,2.0803744334\C,2.3980344088,-0.085968
 1812,1.3816159232\H,-0.9207187733,0.1491230117,1.916403582\H,1.2061563
 246,0.0018438005,3.1560532368\H,3.3312940111,-0.1466141444,1.913567636
 2\H,3.3301127512,-0.1338761547,-0.535122583\H,-0.922965612,0.134059261
 7,-0.5322726823\C,1.2024023859,-0.0007029786,-2.2068664128\C,0.4278941
 119,0.9107021668,-2.9202692212\C,0.426453586,0.910045777,-4.3047206108
 \C,1.2004452768,-0.002030732,-5.0027943804\C,1.9759117967,-0.912785756
 4,-2.9204868308\C,1.9754140959,-0.913444318,-4.3049388838\H,-0.1611238
 164,1.6366665205,-2.3885455868\H,-0.1737441058,1.6268681288,-4.8372170
 903\H,1.1996923076,-0.002541532,-6.0784731838\H,2.5748662054,-1.630772
 4962,-4.8375940221\H,2.5656740413,-1.638245141,-2.388899042\\Version=E
 S64L-G09RevD.01\State=1-A\HF=-460.2718448\RMSD=6.102e-09\RMSF=2.778e-0
 5\Dipole=0.,0.,0.\Quadrupole=0.5023721,-4.3661078,3.8637356,-3.3287523
 ,0.0039336,0.0062382\PG=C02 [X(C12H10)]\\@


 CHEMISTRY BEGAN BY SAYING IT WOULD CHANGE THE BASER
 METALS INTO GOLD.  BY NOT DOING THAT IT HAS DONE MUCH
 GREATER THINGS.  --  RALPH WALDO EMERSON
 Job cpu time:       0 days  0 hours  0 minutes 20.8 seconds.
 File lengths (MBytes):  RWF=     39 Int=      0 D2E=      0 Chk=      5 Scr=      1
 Normal termination of Gaussian 09 at Wed Apr 22 01:34:51 2015.
