2bint1                                                                  
FOpt      RHF                                                         6-31G(d,p)          
Number of atoms                            I               13
Info1-9                                    I   N=           9
          59          59           0           0           0         110
           2           1           2
Full Title                                 C   N=           1
2bint1      
Route                                      C   N=           4
#n RHF/6-31G(d,p) pop=Reg Opt formcheck         
Charge                                     I                1
Multiplicity                               I                1
Number of electrons                        I               32
Number of alpha electrons                  I               16
Number of beta electrons                   I               16
Number of basis functions                  I              105
Number of independent functions            I              105
Number of point charges in /Mol/           I                0
Number of translation vectors              I                0
Atomic numbers                             I   N=          13
           6           6           1           1           1           6
           1           1           1           6           1           1
           1
Nuclear charges                            R   N=          13
  6.00000000E+00  6.00000000E+00  1.00000000E+00  1.00000000E+00  1.00000000E+00
  6.00000000E+00  1.00000000E+00  1.00000000E+00  1.00000000E+00  6.00000000E+00
  1.00000000E+00  1.00000000E+00  1.00000000E+00
Current cartesian coordinates              R   N=          39
 -2.53676458E+00 -1.14640362E+00 -1.92716169E-02 -2.56354461E-05  4.83139723E-05
 -1.17417446E-01 -3.97702468E+00  5.86581167E-02 -8.23376392E-01 -2.95187329E+00
 -1.33602686E+00  2.00001243E+00 -2.58436894E+00 -3.02253431E+00 -8.26158319E-01
  2.26120658E+00 -1.62359802E+00 -1.92715138E-02  1.93769438E+00 -3.47349313E+00
 -8.23216562E-01  3.90973457E+00 -7.26806033E-01 -8.26319336E-01  2.63310753E+00
 -1.88810478E+00  2.00001185E+00  2.75484203E-01  2.77015726E+00 -1.92712624E-02
 -1.32546738E+00  3.74944122E+00 -8.26215222E-01  2.03925048E+00  3.41492966E+00
 -8.23324824E-01  3.18747270E-01  3.22447600E+00  2.00001057E+00
Number of symbols in /Mol/                 I                0
Redundant internal dimensions              I   N=           4
          51          12          21          18
Redundant internal coordinate indices      I   N=         204
           1           2           0           0           1           3
           0           0           1           4           0           0
           1           5           0           0           2           6
           0           0           2          10           0           0
           6           7           0           0           6           8
           0           0           6           9           0           0
          10          11           0           0          10          12
           0           0          10          13           0           0
           2           1           3           0           2           1
           4           0           2           1           5           0
           3           1           4           0           3           1
           5           0           4           1           5           0
           1           2           6           0           1           2
          10           0           6           2          10           0
           2           6           7           0           2           6
           8           0           2           6           9           0
           7           6           8           0           7           6
           9           0           8           6           9           0
           2          10          11           0           2          10
          12           0           2          10          13           0
          11          10          12           0          11          10
          13           0          12          10          13           0
           3           1           2           6           3           1
           2          10           4           1           2           6
           4           1           2          10           5           1
           2           6           5           1           2          10
           1           2           6           7           1           2
           6           8           1           2           6           9
          10           2           6           7          10           2
           6           8          10           2           6           9
           1           2          10          11           1           2
          10          12           1           2          10          13
           6           2          10          11           6           2
          10          12           6           2          10          13
Redundant internal coordinates             R   N=          51
  2.78550338E+00  2.04281851E+00  2.07021262E+00  2.04284084E+00  2.78550376E+00
  2.78550569E+00  2.04281660E+00  2.04284278E+00  2.07021241E+00  2.04284155E+00
  2.04281792E+00  2.07021166E+00  1.96645015E+00  1.82830719E+00  1.96632407E+00
  1.87193110E+00  1.94965125E+00  1.87179286E+00  2.09224979E+00  2.09224493E+00
  2.09224370E+00  1.96645739E+00  1.96631641E+00  1.82830782E+00  1.94965092E+00
  1.87194094E+00  1.87178323E+00  1.96632090E+00  1.96645201E+00  1.82830995E+00
  1.94964962E+00  1.87178988E+00  1.87193468E+00 -2.74519568E+00  5.18302008E-01
  1.50892452E+00 -1.51076310E+00 -5.19912638E-01  2.74358505E+00  5.18209988E-01
  2.74349222E+00 -1.51087087E+00 -2.74528761E+00 -5.20005380E-01  1.50881684E+00
 -5.19945319E-01 -2.74522501E+00  1.50888834E+00  2.74355194E+00  5.18272242E-01
 -1.51079971E+00
ZRed-IntVec                                I   N=          51
           0           0           0           0           0           0
           0           0           0           0           0           0
           0           0           0           0           0           0
           0           0           0           0           0           0
           0           0           0           0           0           0
           0           0           0           0           0           0
           0           0           0           0           0           0
           0           0           0           0           0           0
           0           0           0
ZRed-FPVec                                 R   N=          51
  0.00000000E+00  0.00000000E+00  0.00000000E+00  0.00000000E+00  0.00000000E+00
  0.00000000E+00  0.00000000E+00  0.00000000E+00  0.00000000E+00  0.00000000E+00
  0.00000000E+00  0.00000000E+00  0.00000000E+00  0.00000000E+00  0.00000000E+00
  0.00000000E+00  0.00000000E+00  0.00000000E+00  0.00000000E+00  0.00000000E+00
  0.00000000E+00  0.00000000E+00  0.00000000E+00  0.00000000E+00  0.00000000E+00
  0.00000000E+00  0.00000000E+00  0.00000000E+00  0.00000000E+00  0.00000000E+00
  0.00000000E+00  0.00000000E+00  0.00000000E+00  0.00000000E+00  0.00000000E+00
  0.00000000E+00  0.00000000E+00  0.00000000E+00  0.00000000E+00  0.00000000E+00
  0.00000000E+00  0.00000000E+00  0.00000000E+00  0.00000000E+00  0.00000000E+00
  0.00000000E+00  0.00000000E+00  0.00000000E+00  0.00000000E+00  0.00000000E+00
  0.00000000E+00
ZRed-Constraint1                           R   N=          51
  2.82226818E+00  2.06802179E+00  2.06756826E+00  2.06802179E+00  2.82228708E+00
  2.82226818E+00  2.06802179E+00  2.06802179E+00  2.06756826E+00  2.06802179E+00
  2.06802179E+00  2.06756826E+00  1.93438349E+00  1.92713182E+00  1.93436290E+00
  1.89473538E+00  1.87703170E+00  1.89474863E+00  2.06838376E+00  2.06838202E+00
  2.06837484E+00  1.93438943E+00  1.93436063E+00  1.92713287E+00  1.87703036E+00
  1.89473216E+00  1.89474829E+00  1.93435958E+00  1.93438925E+00  1.92713165E+00
  1.87703225E+00  1.89474753E+00  1.89473359E+00 -2.82254716E+00  7.38879379E-01
  1.36042743E+00 -1.36133133E+00 -7.39786427E-01  2.82164012E+00  7.38761919E-01
  2.82152335E+00 -1.36144932E+00 -2.82266289E+00 -7.39901450E-01  1.36031118E+00
 -7.39824475E-01 -2.82258748E+00  1.36038572E+00  2.82159991E+00  7.38836899E-01
 -1.36137521E+00
ZRed-Constraint2                           R   N=          51
  0.00000000E+00  0.00000000E+00  0.00000000E+00  0.00000000E+00  0.00000000E+00
  0.00000000E+00  0.00000000E+00  0.00000000E+00  0.00000000E+00  0.00000000E+00
  0.00000000E+00  0.00000000E+00  0.00000000E+00  0.00000000E+00  0.00000000E+00
  0.00000000E+00  0.00000000E+00  0.00000000E+00  0.00000000E+00  0.00000000E+00
  0.00000000E+00  0.00000000E+00  0.00000000E+00  0.00000000E+00  0.00000000E+00
  0.00000000E+00  0.00000000E+00  0.00000000E+00  0.00000000E+00  0.00000000E+00
  0.00000000E+00  0.00000000E+00  0.00000000E+00  0.00000000E+00  0.00000000E+00
  0.00000000E+00  0.00000000E+00  0.00000000E+00  0.00000000E+00  0.00000000E+00
  0.00000000E+00  0.00000000E+00  0.00000000E+00  0.00000000E+00  0.00000000E+00
  0.00000000E+00  0.00000000E+00  0.00000000E+00  0.00000000E+00  0.00000000E+00
  0.00000000E+00
Force Field                                I                0
Atom Types                                 C   N=          13
                                                            
                                                            
                                    
Int Atom Types                             I   N=          13
           0           0           0           0           0           0
           0           0           0           0           0           0
           0
MM charges                                 R   N=          13
  0.00000000E+00  0.00000000E+00  0.00000000E+00  0.00000000E+00  0.00000000E+00
  0.00000000E+00  0.00000000E+00  0.00000000E+00  0.00000000E+00  0.00000000E+00
  0.00000000E+00  0.00000000E+00  0.00000000E+00
Integer atomic weights                     I   N=          13
          12          12           1           1           1          12
           1           1           1          12           1           1
           1
Real atomic weights                        R   N=          13
  1.20000000E+01  1.20000000E+01  1.00782504E+00  1.00782504E+00  1.00782504E+00
  1.20000000E+01  1.00782504E+00  1.00782504E+00  1.00782504E+00  1.20000000E+01
  1.00782504E+00  1.00782504E+00  1.00782504E+00
Atom fragment info                         I   N=          13
           0           0           0           0           0           0
           0           0           0           0           0           0
           0
Atom residue num                           I   N=          13
           0           0           0           0           0           0
           0           0           0           0           0           0
           0
Nuclear spins                              I   N=          13
           0           0           1           1           1           0
           1           1           1           0           1           1
           1
Nuclear ZEff                               R   N=          13
 -3.60000000E+00 -3.60000000E+00 -1.00000000E+00 -1.00000000E+00 -1.00000000E+00
 -3.60000000E+00 -1.00000000E+00 -1.00000000E+00 -1.00000000E+00 -3.60000000E+00
 -1.00000000E+00 -1.00000000E+00 -1.00000000E+00
Nuclear ZNuc                               R   N=          13
  6.00000000E+00  6.00000000E+00  1.00000000E+00  1.00000000E+00  1.00000000E+00
  6.00000000E+00  1.00000000E+00  1.00000000E+00  1.00000000E+00  6.00000000E+00
  1.00000000E+00  1.00000000E+00  1.00000000E+00
Nuclear QMom                               R   N=          13
  0.00000000E+00  0.00000000E+00  0.00000000E+00  0.00000000E+00  0.00000000E+00
  0.00000000E+00  0.00000000E+00  0.00000000E+00  0.00000000E+00  0.00000000E+00
  0.00000000E+00  0.00000000E+00  0.00000000E+00
Nuclear GFac                               R   N=          13
  0.00000000E+00  0.00000000E+00  2.79284600E+00  2.79284600E+00  2.79284600E+00
  0.00000000E+00  2.79284600E+00  2.79284600E+00  2.79284600E+00  0.00000000E+00
  2.79284600E+00  2.79284600E+00  2.79284600E+00
MicOpt                                     I   N=          13
          -1          -1          -1          -1          -1          -1
          -1          -1          -1          -1          -1          -1
          -1
Number of residues                         I                0
Number of secondary structures             I                0
Number of contracted shells                I               43
Number of primitive shells                 I               89
Pure/Cartesian d shells                    I                1
Pure/Cartesian f shells                    I                0
Highest angular momentum                   I                2
Largest degree of contraction              I                6
Shell types                                I   N=          43
           0          -1          -1           2           0          -1
          -1           2           0           0           1           0
           0           1           0           0           1           0
          -1          -1           2           0           0           1
           0           0           1           0           0           1
           0          -1          -1           2           0           0
           1           0           0           1           0           0
           1
Number of primitives per shell             I   N=          43
           6           3           1           1           6           3
           1           1           3           1           1           3
           1           1           3           1           1           6
           3           1           1           3           1           1
           3           1           1           3           1           1
           6           3           1           1           3           1
           1           3           1           1           3           1
           1
Shell to atom map                          I   N=          43
           1           1           1           1           2           2
           2           2           3           3           3           4
           4           4           5           5           5           6
           6           6           6           7           7           7
           8           8           8           9           9           9
          10          10          10          10          11          11
          11          12          12          12          13          13
          13
Primitive exponents                        R   N=          89
  3.04752488E+03  4.57369518E+02  1.03948685E+02  2.92101553E+01  9.28666296E+00
  3.16392696E+00  7.86827235E+00  1.88128854E+00  5.44249258E-01  1.68714478E-01
  8.00000000E-01  3.04752488E+03  4.57369518E+02  1.03948685E+02  2.92101553E+01
  9.28666296E+00  3.16392696E+00  7.86827235E+00  1.88128854E+00  5.44249258E-01
  1.68714478E-01  8.00000000E-01  1.87311370E+01  2.82539436E+00  6.40121692E-01
  1.61277759E-01  1.10000000E+00  1.87311370E+01  2.82539436E+00  6.40121692E-01
  1.61277759E-01  1.10000000E+00  1.87311370E+01  2.82539436E+00  6.40121692E-01
  1.61277759E-01  1.10000000E+00  3.04752488E+03  4.57369518E+02  1.03948685E+02
  2.92101553E+01  9.28666296E+00  3.16392696E+00  7.86827235E+00  1.88128854E+00
  5.44249258E-01  1.68714478E-01  8.00000000E-01  1.87311370E+01  2.82539436E+00
  6.40121692E-01  1.61277759E-01  1.10000000E+00  1.87311370E+01  2.82539436E+00
  6.40121692E-01  1.61277759E-01  1.10000000E+00  1.87311370E+01  2.82539436E+00
  6.40121692E-01  1.61277759E-01  1.10000000E+00  3.04752488E+03  4.57369518E+02
  1.03948685E+02  2.92101553E+01  9.28666296E+00  3.16392696E+00  7.86827235E+00
  1.88128854E+00  5.44249258E-01  1.68714478E-01  8.00000000E-01  1.87311370E+01
  2.82539436E+00  6.40121692E-01  1.61277759E-01  1.10000000E+00  1.87311370E+01
  2.82539436E+00  6.40121692E-01  1.61277759E-01  1.10000000E+00  1.87311370E+01
  2.82539436E+00  6.40121692E-01  1.61277759E-01  1.10000000E+00
Contraction coefficients                   R   N=          89
  1.83473713E-03  1.40373228E-02  6.88426223E-02  2.32184443E-01  4.67941348E-01
  3.62311985E-01 -1.19332420E-01 -1.60854152E-01  1.14345644E+00  1.00000000E+00
  1.00000000E+00  1.83473713E-03  1.40373228E-02  6.88426223E-02  2.32184443E-01
  4.67941348E-01  3.62311985E-01 -1.19332420E-01 -1.60854152E-01  1.14345644E+00
  1.00000000E+00  1.00000000E+00  3.34946043E-02  2.34726953E-01  8.13757326E-01
  1.00000000E+00  1.00000000E+00  3.34946043E-02  2.34726953E-01  8.13757326E-01
  1.00000000E+00  1.00000000E+00  3.34946043E-02  2.34726953E-01  8.13757326E-01
  1.00000000E+00  1.00000000E+00  1.83473713E-03  1.40373228E-02  6.88426223E-02
  2.32184443E-01  4.67941348E-01  3.62311985E-01 -1.19332420E-01 -1.60854152E-01
  1.14345644E+00  1.00000000E+00  1.00000000E+00  3.34946043E-02  2.34726953E-01
  8.13757326E-01  1.00000000E+00  1.00000000E+00  3.34946043E-02  2.34726953E-01
  8.13757326E-01  1.00000000E+00  1.00000000E+00  3.34946043E-02  2.34726953E-01
  8.13757326E-01  1.00000000E+00  1.00000000E+00  1.83473713E-03  1.40373228E-02
  6.88426223E-02  2.32184443E-01  4.67941348E-01  3.62311985E-01 -1.19332420E-01
 -1.60854152E-01  1.14345644E+00  1.00000000E+00  1.00000000E+00  3.34946043E-02
  2.34726953E-01  8.13757326E-01  1.00000000E+00  1.00000000E+00  3.34946043E-02
  2.34726953E-01  8.13757326E-01  1.00000000E+00  1.00000000E+00  3.34946043E-02
  2.34726953E-01  8.13757326E-01  1.00000000E+00  1.00000000E+00
P(S=P) Contraction coefficients            R   N=          89
  0.00000000E+00  0.00000000E+00  0.00000000E+00  0.00000000E+00  0.00000000E+00
  0.00000000E+00  6.89990666E-02  3.16423961E-01  7.44308291E-01  1.00000000E+00
  0.00000000E+00  0.00000000E+00  0.00000000E+00  0.00000000E+00  0.00000000E+00
  0.00000000E+00  0.00000000E+00  6.89990666E-02  3.16423961E-01  7.44308291E-01
  1.00000000E+00  0.00000000E+00  0.00000000E+00  0.00000000E+00  0.00000000E+00
  0.00000000E+00  0.00000000E+00  0.00000000E+00  0.00000000E+00  0.00000000E+00
  0.00000000E+00  0.00000000E+00  0.00000000E+00  0.00000000E+00  0.00000000E+00
  0.00000000E+00  0.00000000E+00  0.00000000E+00  0.00000000E+00  0.00000000E+00
  0.00000000E+00  0.00000000E+00  0.00000000E+00  6.89990666E-02  3.16423961E-01
  7.44308291E-01  1.00000000E+00  0.00000000E+00  0.00000000E+00  0.00000000E+00
  0.00000000E+00  0.00000000E+00  0.00000000E+00  0.00000000E+00  0.00000000E+00
  0.00000000E+00  0.00000000E+00  0.00000000E+00  0.00000000E+00  0.00000000E+00
  0.00000000E+00  0.00000000E+00  0.00000000E+00  0.00000000E+00  0.00000000E+00
  0.00000000E+00  0.00000000E+00  0.00000000E+00  0.00000000E+00  6.89990666E-02
  3.16423961E-01  7.44308291E-01  1.00000000E+00  0.00000000E+00  0.00000000E+00
  0.00000000E+00  0.00000000E+00  0.00000000E+00  0.00000000E+00  0.00000000E+00
  0.00000000E+00  0.00000000E+00  0.00000000E+00  0.00000000E+00  0.00000000E+00
  0.00000000E+00  0.00000000E+00  0.00000000E+00  0.00000000E+00
Coordinates of each shell                  R   N=         129
 -2.53674043E+00 -1.14645706E+00 -1.92726218E-02 -2.53674043E+00 -1.14645706E+00
 -1.92726218E-02 -2.53674043E+00 -1.14645706E+00 -1.92726218E-02 -2.53674043E+00
 -1.14645706E+00 -1.92726218E-02 -1.49427066E-06 -5.12542405E-06 -1.17418451E-01
 -1.49427066E-06 -5.12542405E-06 -1.17418451E-01 -1.49427066E-06 -5.12542405E-06
 -1.17418451E-01 -1.49427066E-06 -5.12542405E-06 -1.17418451E-01 -3.97700054E+00
  5.86046768E-02 -8.23377397E-01 -3.97700054E+00  5.86046768E-02 -8.23377397E-01
 -3.97700054E+00  5.86046768E-02 -8.23377397E-01 -2.95184915E+00 -1.33608030E+00
  2.00001143E+00 -2.95184915E+00 -1.33608030E+00  2.00001143E+00 -2.95184915E+00
 -1.33608030E+00  2.00001143E+00 -2.58434480E+00 -3.02258775E+00 -8.26159323E-01
 -2.58434480E+00 -3.02258775E+00 -8.26159323E-01 -2.58434480E+00 -3.02258775E+00
 -8.26159323E-01  2.26123072E+00 -1.62365146E+00 -1.92725187E-02  2.26123072E+00
 -1.62365146E+00 -1.92725187E-02  2.26123072E+00 -1.62365146E+00 -1.92725187E-02
  2.26123072E+00 -1.62365146E+00 -1.92725187E-02  1.93771852E+00 -3.47354657E+00
 -8.23217567E-01  1.93771852E+00 -3.47354657E+00 -8.23217567E-01  1.93771852E+00
 -3.47354657E+00 -8.23217567E-01  3.90975871E+00 -7.26859472E-01 -8.26320341E-01
  3.90975871E+00 -7.26859472E-01 -8.26320341E-01  3.90975871E+00 -7.26859472E-01
 -8.26320341E-01  2.63313167E+00 -1.88815822E+00  2.00001084E+00  2.63313167E+00
 -1.88815822E+00  2.00001084E+00  2.63313167E+00 -1.88815822E+00  2.00001084E+00
  2.75508344E-01  2.77010382E+00 -1.92722672E-02  2.75508344E-01  2.77010382E+00
 -1.92722672E-02  2.75508344E-01  2.77010382E+00 -1.92722672E-02  2.75508344E-01
  2.77010382E+00 -1.92722672E-02 -1.32544323E+00  3.74938778E+00 -8.26216227E-01
 -1.32544323E+00  3.74938778E+00 -8.26216227E-01 -1.32544323E+00  3.74938778E+00
 -8.26216227E-01  2.03927462E+00  3.41487622E+00 -8.23325829E-01  2.03927462E+00
  3.41487622E+00 -8.23325829E-01  2.03927462E+00  3.41487622E+00 -8.23325829E-01
  3.18771411E-01  3.22442256E+00  2.00000956E+00  3.18771411E-01  3.22442256E+00
  2.00000956E+00  3.18771411E-01  3.22442256E+00  2.00000956E+00
Constraint Structure                       R   N=          39
 -2.12772985E+00 -1.82139517E+00  3.99236280E-02 -7.55244859E-06 -1.54482554E-06
 -3.07237401E-01 -3.85847728E+00 -1.10640401E+00 -8.37581437E-01 -2.48984917E+00
 -2.13253361E+00  2.05161470E+00 -1.68886972E+00 -3.64113125E+00 -8.39096563E-01
  2.64124819E+00 -9.31963104E-01  3.99226939E-02  2.88737798E+00 -2.78842892E+00
 -8.37385082E-01  3.99773125E+00  3.57861351E-01 -8.39293274E-01  3.09184255E+00
 -1.08978250E+00  2.05161260E+00 -5.13514036E-01  2.75335797E+00  3.99227840E-02
 -2.30884719E+00  3.28317304E+00 -8.39161399E-01  9.71096375E-01  3.89473940E+00
 -8.37513532E-01 -6.01985295E-01  3.22251760E+00  2.05161376E+00
Num ILSW                                   I              100
ILSW                                       I   N=         100
           0           1           0           0           2           0
           0           0           3           0           0          -1
           0           0           0           0           2           0
           0           0           1           0           1           0
           1           0           0           0           0           0
           0           0      100000           0          -1           0
           0           0           0           0           0           0
           0           0           0           1           0           0
           0           0           1           0           0           0
           0           0           4          41           0           0
           0           0           0           0           0           0
           0           0           0           0           0           0
           0           0           0           0           0           0
           0           0           0           0           0           0
           0           0           0           0           0           0
           0           0           0           0           0           0
           0           0           0           0
Num RLSW                                   I               41
RLSW                                       R   N=          41
  1.00000000E+00  1.00000000E+00  1.00000000E+00  1.00000000E+00  1.00000000E+00
  0.00000000E+00  0.00000000E+00  1.00000000E+00  0.00000000E+00  0.00000000E+00
  0.00000000E+00  0.00000000E+00  1.00000000E+00  0.00000000E+00  0.00000000E+00
  0.00000000E+00  0.00000000E+00  1.00000000E+00  0.00000000E+00  0.00000000E+00
  0.00000000E+00  0.00000000E+00  1.00000000E+00  0.00000000E+00  0.00000000E+00
  0.00000000E+00  0.00000000E+00  1.00000000E+00  0.00000000E+00  0.00000000E+00
  0.00000000E+00  0.00000000E+00  1.00000000E+00  0.00000000E+00  0.00000000E+00
  0.00000000E+00  0.00000000E+00  0.00000000E+00  1.00000000E+00  1.00000000E+00
  0.00000000E+00
MxBond                                     I                4
NBond                                      I   N=          13
           4           3           1           1           1           4
           1           1           1           4           1           1
           1
IBond                                      I   N=          52
           2           3           4           5           1           6
          10           0           1           0           0           0
           1           0           0           0           1           0
           0           0           2           7           8           9
           6           0           0           0           6           0
           0           0           6           0           0           0
           2          11          12          13          10           0
           0           0          10           0           0           0
          10           0           0           0
RBond                                      R   N=          52
  1.00000000E+00  1.00000000E+00  1.00000000E+00  1.00000000E+00  1.00000000E+00
  1.00000000E+00  1.00000000E+00  0.00000000E+00  1.00000000E+00  0.00000000E+00
  0.00000000E+00  0.00000000E+00  1.00000000E+00  0.00000000E+00  0.00000000E+00
  0.00000000E+00  1.00000000E+00  0.00000000E+00  0.00000000E+00  0.00000000E+00
  1.00000000E+00  1.00000000E+00  1.00000000E+00  1.00000000E+00  1.00000000E+00
  0.00000000E+00  0.00000000E+00  0.00000000E+00  1.00000000E+00  0.00000000E+00
  0.00000000E+00  0.00000000E+00  1.00000000E+00  0.00000000E+00  0.00000000E+00
  0.00000000E+00  1.00000000E+00  1.00000000E+00  1.00000000E+00  1.00000000E+00
  1.00000000E+00  0.00000000E+00  0.00000000E+00  0.00000000E+00  1.00000000E+00
  0.00000000E+00  0.00000000E+00  0.00000000E+00  1.00000000E+00  0.00000000E+00
  0.00000000E+00  0.00000000E+00
Virial Ratio                               R      2.000514223818604E+00
SCF Energy                                 R     -1.564565500945010E+02
Total Energy                               R     -1.564565500945010E+02
RMS Force                                  R      1.344451250240530E-05
RMS Density                                R      8.073459772300553E-09
External E-field                           R   N=          35
  0.00000000E+00  0.00000000E+00  0.00000000E+00  0.00000000E+00  0.00000000E+00
  0.00000000E+00  0.00000000E+00  0.00000000E+00  0.00000000E+00  0.00000000E+00
  0.00000000E+00  0.00000000E+00  0.00000000E+00  0.00000000E+00  0.00000000E+00
  0.00000000E+00  0.00000000E+00  0.00000000E+00  0.00000000E+00  0.00000000E+00
  0.00000000E+00  0.00000000E+00  0.00000000E+00  0.00000000E+00  0.00000000E+00
  0.00000000E+00  0.00000000E+00  0.00000000E+00  0.00000000E+00  0.00000000E+00
  0.00000000E+00  0.00000000E+00  0.00000000E+00  0.00000000E+00  0.00000000E+00
IOpCl                                      I                0
IROHF                                      I                0
Alpha Orbital Energies                     R   N=         105
 -1.15817119E+01 -1.14422766E+01 -1.14422766E+01 -1.14422422E+01 -1.35265095E+00
 -1.18683927E+00 -1.18683832E+00 -9.60987559E-01 -8.48917679E-01 -8.48917396E-01
 -8.31304527E-01 -7.61305525E-01 -7.61304514E-01 -7.45956335E-01 -7.31747140E-01
 -7.31746337E-01 -1.59718329E-01  2.74766279E-02  9.11696483E-02  9.11698183E-02
  1.05675606E-01  1.11769081E-01  1.11771111E-01  1.43418830E-01  1.43419919E-01
  1.70301292E-01  1.99504585E-01  2.56860394E-01  2.56865137E-01  4.86895399E-01
  4.86896935E-01  4.98714505E-01  5.51120057E-01  5.51123711E-01  5.60163990E-01
  6.64151892E-01  7.10751795E-01  7.10759522E-01  7.83411888E-01  7.83414351E-01
  7.89468407E-01  8.53690815E-01  9.06892075E-01  9.06895951E-01  9.13427755E-01
  9.37636061E-01  9.66605348E-01  9.84290788E-01  9.84291077E-01  1.02302494E+00
  1.02302534E+00  1.19533642E+00  1.29589680E+00  1.29590329E+00  1.42750959E+00
  1.42751717E+00  1.55926792E+00  1.77773370E+00  1.82371131E+00  1.82371365E+00
  1.88825774E+00  1.88826023E+00  1.98519375E+00  2.00187738E+00  2.00188184E+00
  2.11243700E+00  2.12961694E+00  2.12961801E+00  2.17812174E+00  2.19263333E+00
  2.19263535E+00  2.22550905E+00  2.22550930E+00  2.25543253E+00  2.35769066E+00
  2.35769310E+00  2.45280148E+00  2.49881785E+00  2.49997181E+00  2.62574205E+00
  2.62574792E+00  2.75191617E+00  2.75192590E+00  2.81345988E+00  2.86416105E+00
  2.86416731E+00  2.97986378E+00  2.97987152E+00  2.98895525E+00  2.98926288E+00
  3.14332202E+00  3.14332694E+00  3.32791407E+00  3.39927673E+00  3.39927845E+00
  3.58529250E+00  3.58529371E+00  3.59893470E+00  3.59979104E+00  3.66723465E+00
  3.66723916E+00  4.31667651E+00  4.69041816E+00  4.69041896E+00  4.78679508E+00
Alpha MO coefficients                      R   N=       11025
  2.70416759E-03  2.26499475E-04 -8.96967113E-05 -4.06733609E-05  3.73958592E-05
  2.75715188E-03  1.31883147E-03  5.97613032E-04 -5.16954271E-04 -4.99657741E-04
 -2.59334756E-04 -1.59179149E-04 -1.57605790E-04  1.54679389E-05  7.02792757E-06
  9.95942874E-01  2.64131214E-02 -5.67294191E-10 -2.10349663E-09  1.74759498E-04
 -1.34099138E-02  2.47637860E-08  8.54280548E-08 -1.01237151E-04 -1.05680355E-03
 -1.05681591E-03 -2.16845654E-03 -1.25199164E-10  6.12634324E-11  1.60590735E-10
 -6.85245720E-05 -5.89237808E-05  5.49126962E-05 -1.20196577E-05  4.01822483E-05
 -5.84874275E-05  7.04970240E-04  1.46193426E-04  6.60919321E-05 -8.75837873E-05
 -6.84804179E-05 -5.73895638E-05  2.74267458E-05  4.91640843E-05  4.02913876E-05
  2.70416450E-03  2.26499866E-04  8.00797701E-05 -5.73335724E-05  3.73960302E-05
  2.75713709E-03 -1.17706256E-03  8.43181761E-04 -5.16952279E-04 -4.37616818E-04