 Entering Gaussian System, Link 0=g09
 Input=04_24_Homework42b_Interm2.com.tmp
 Output=04_24_Homework42b_Interm2.com.log
 Initial command:
 /share/apps/NYUAD/gaussian/09.D.01/l1.exe "/home/sgn228/homework/4/2bint2/Gau-5503.inp" -scrdir="/home/sgn228/homework/4/2bint2/"
 Entering Link 1 = /share/apps/NYUAD/gaussian/09.D.01/l1.exe PID=      5504.
  
 Copyright (c) 1988,1990,1992,1993,1995,1998,2003,2009,2013,
            Gaussian, Inc.  All Rights Reserved.
  
 This is part of the Gaussian(R) 09 program.  It is based on
 the Gaussian(R) 03 system (copyright 2003, Gaussian, Inc.),
 the Gaussian(R) 98 system (copyright 1998, Gaussian, Inc.),
 the Gaussian(R) 94 system (copyright 1995, Gaussian, Inc.),
 the Gaussian 92(TM) system (copyright 1992, Gaussian, Inc.),
 the Gaussian 90(TM) system (copyright 1990, Gaussian, Inc.),
 the Gaussian 88(TM) system (copyright 1988, Gaussian, Inc.),
 the Gaussian 86(TM) system (copyright 1986, Carnegie Mellon
 University), and the Gaussian 82(TM) system (copyright 1983,
 Carnegie Mellon University). Gaussian is a federally registered
 trademark of Gaussian, Inc.
  
 This software contains proprietary and confidential information,
 including trade secrets, belonging to Gaussian, Inc.
  
 This software is provided under written license and may be
 used, copied, transmitted, or stored only in accord with that
 written license.
  
 The following legend is applicable only to US Government
 contracts under FAR:
  
                    RESTRICTED RIGHTS LEGEND
  
 Use, reproduction and disclosure by the US Government is
 subject to restrictions as set forth in subparagraphs (a)
 and (c) of the Commercial Computer Software - Restricted
 Rights clause in FAR 52.227-19.
  
 Gaussian, Inc.
 340 Quinnipiac St., Bldg. 40, Wallingford CT 06492
  
  
 ---------------------------------------------------------------
 Warning -- This program may not be used in any manner that
 competes with the business of Gaussian, Inc. or will provide
 assistance to any competitor of Gaussian, Inc.  The licensee
 of this program is prohibited from giving any competitor of
 Gaussian, Inc. access to this program.  By using this program,
 the user acknowledges that Gaussian, Inc. is engaged in the
 business of creating and licensing software in the field of
 computational chemistry and represents and warrants to the
 licensee that it is not a competitor of Gaussian, Inc. and that
 it will not use this program in any manner prohibited above.
 ---------------------------------------------------------------
  

 Cite this work as:
 Gaussian 09, Revision D.01,
 M. J. Frisch, G. W. Trucks, H. B. Schlegel, G. E. Scuseria, 
 M. A. Robb, J. R. Cheeseman, G. Scalmani, V. Barone, B. Mennucci, 
 G. A. Petersson, H. Nakatsuji, M. Caricato, X. Li, H. P. Hratchian, 
 A. F. Izmaylov, J. Bloino, G. Zheng, J. L. Sonnenberg, M. Hada, 
 M. Ehara, K. Toyota, R. Fukuda, J. Hasegawa, M. Ishida, T. Nakajima, 
 Y. Honda, O. Kitao, H. Nakai, T. Vreven, J. A. Montgomery, Jr., 
 J. E. Peralta, F. Ogliaro, M. Bearpark, J. J. Heyd, E. Brothers, 
 K. N. Kudin, V. N. Staroverov, T. Keith, R. Kobayashi, J. Normand, 
 K. Raghavachari, A. Rendell, J. C. Burant, S. S. Iyengar, J. Tomasi, 
 M. Cossi, N. Rega, J. M. Millam, M. Klene, J. E. Knox, J. B. Cross, 
 V. Bakken, C. Adamo, J. Jaramillo, R. Gomperts, R. E. Stratmann, 
 O. Yazyev, A. J. Austin, R. Cammi, C. Pomelli, J. W. Ochterski, 
 R. L. Martin, K. Morokuma, V. G. Zakrzewski, G. A. Voth, 
 P. Salvador, J. J. Dannenberg, S. Dapprich, A. D. Daniels, 
 O. Farkas, J. B. Foresman, J. V. Ortiz, J. Cioslowski, 
 and D. J. Fox, Gaussian, Inc., Wallingford CT, 2013.
 
 ******************************************
 Gaussian 09:  ES64L-G09RevD.01 24-Apr-2013
                22-Apr-2015 
 ******************************************
 %NProcShared=12
 Will use up to   12 processors via shared memory.
 %LindaWorkers=compute-1-27:12
 %UseSSH
 %DebugLinda
 %NProcShared=12
 Will use up to   12 processors via shared memory.
 %Chk=04_24_Homework42b_Interm2.chk
 SetLPE:  input flags=""
 SetLPE:    new flags="-vv -opt 'Tsnet.Node.lindarsharg: ssh' -mp 12 -nodelist 'compute-1-27.local' -opt 'Tsnet.compute-1-27_local.speedfactor: 12'"
 Will use up to   12 processors via Linda.
 ---------------------
 #n RHF/6-31G(d,p) Opt
 ---------------------
 1/18=20,19=15,38=1/1,3;
 2/9=110,12=2,17=6,18=5,40=1/2;
 3/5=1,6=6,7=101,11=1,16=1,25=1,30=1,71=1,116=1/1,2,3;
 4//1;
 5/5=2,38=5/2;
 6/7=2,8=2,9=2,10=2,28=1/1;
 7//1,2,3,16;
 1/18=20,19=15/3(2);
 2/9=110/2;
 99//99;
 2/9=110/2;
 3/5=1,6=6,7=101,11=1,16=1,25=1,30=1,71=1,116=1/1,2,3;
 4/5=5,16=3,69=1/1;
 5/5=2,38=5/2;
 7//1,2,3,16;
 1/18=20,19=15/3(-5);
 2/9=110/2;
 6/7=2,8=2,9=2,10=2,19=2,28=1/1;
 99/9=1/99;
 -----
 Title
 -----
 Symbolic Z-matrix:
 Charge =  1 Multiplicity = 1
 C
 C                    1    B1
 H                    2    B2       1    A2
 H                    2    B3       1    A3       3    D3       0
 H                    2    B4       1    A4       3    D4       0
 C                    1    B5       2    A5       3    D5       0
 H                    6    B6       1    A6       2    D6       0
 H                    6    B7       1    A7       2    D7       0
 H                    6    B8       1    A8       2    D8       0
 C                    1    B9       2    A9       3    D9       0
 H                    1    B10      2    A10      3    D10      0
 H                    10   B11      1    A11      2    D11      0
 H                    10   B12      1    A12      2    D12      0
       Variables:
  B1                    1.52758                  
  B2                    1.09598                  
  A2                  111.5243                   
  B3                    1.0958                   
  A3                  111.07246                  
  D3                  239.63364                  
  B4                    1.09536                  
  A4                  110.6864                   
  D4                  120.15653                  
  B5                    1.52757                  
  A5                  110.39431                  
  D5                  298.39932                  
  B6                    1.09536                  
  A6                  110.68854                  
  D6                  301.5102                   
  B7                    1.0958                   
  A7                  111.07007                  
  D7                  182.03215                  
  B8                    1.09598                  
  A8                  111.52419                  
  D8                   61.66837                  
  B9                    1.49904                  
  A9                  110.74852                  
  D9                   61.4242                   
  B10                   1.09653                  
  A10                 108.41835                  
  D10                 179.77173                  
  B11                   1.08509                  
  A11                 120.28321                  
  D11                 200.46205                  
  B12                   1.0851                   
  A12                 120.28223                  
  D12                  36.68466                  
 

 GradGradGradGradGradGradGradGradGradGradGradGradGradGradGradGradGradGrad
 Berny optimization.
 Initialization pass.
                           ----------------------------
                           !    Initial Parameters    !
                           ! (Angstroms and Degrees)  !
 --------------------------                            --------------------------
 ! Name  Definition              Value          Derivative Info.                !
 --------------------------------------------------------------------------------
 ! R1    R(1,2)                  1.5276         estimate D2E/DX2                !
 ! R2    R(1,6)                  1.5276         estimate D2E/DX2                !
 ! R3    R(1,10)                 1.499          estimate D2E/DX2                !
 ! R4    R(1,11)                 1.0965         estimate D2E/DX2                !
 ! R5    R(2,3)                  1.096          estimate D2E/DX2                !
 ! R6    R(2,4)                  1.0958         estimate D2E/DX2                !
 ! R7    R(2,5)                  1.0954         estimate D2E/DX2                !
 ! R8    R(6,7)                  1.0954         estimate D2E/DX2                !
 ! R9    R(6,8)                  1.0958         estimate D2E/DX2                !
 ! R10   R(6,9)                  1.096          estimate D2E/DX2                !
 ! R11   R(10,12)                1.0851         estimate D2E/DX2                !
 ! R12   R(10,13)                1.0851         estimate D2E/DX2                !
 ! A1    A(2,1,6)              110.3943         estimate D2E/DX2                !
 ! A2    A(2,1,10)             110.7485         estimate D2E/DX2                !
 ! A3    A(2,1,11)             108.4184         estimate D2E/DX2                !
 ! A4    A(6,1,10)             110.7478         estimate D2E/DX2                !
 ! A5    A(6,1,11)             108.4197         estimate D2E/DX2                !
 ! A6    A(10,1,11)            108.0199         estimate D2E/DX2                !
 ! A7    A(1,2,3)              111.5243         estimate D2E/DX2                !
 ! A8    A(1,2,4)              111.0725         estimate D2E/DX2                !
 ! A9    A(1,2,5)              110.6864         estimate D2E/DX2                !
 ! A10   A(3,2,4)              107.8729         estimate D2E/DX2                !
 ! A11   A(3,2,5)              107.9143         estimate D2E/DX2                !
 ! A12   A(4,2,5)              107.6111         estimate D2E/DX2                !
 ! A13   A(1,6,7)              110.6885         estimate D2E/DX2                !
 ! A14   A(1,6,8)              111.0701         estimate D2E/DX2                !
 ! A15   A(1,6,9)              111.5242         estimate D2E/DX2                !
 ! A16   A(7,6,8)              107.6119         estimate D2E/DX2                !
 ! A17   A(7,6,9)              107.9145         estimate D2E/DX2                !
 ! A18   A(8,6,9)              107.8723         estimate D2E/DX2                !
 ! A19   A(1,10,12)            120.2832         estimate D2E/DX2                !
 ! A20   A(1,10,13)            120.2822         estimate D2E/DX2                !
 ! A21   A(12,10,13)           117.4993         estimate D2E/DX2                !
 ! D1    D(6,1,2,3)            -61.6007         estimate D2E/DX2                !
 ! D2    D(6,1,2,4)            178.033          estimate D2E/DX2                !
 ! D3    D(6,1,2,5)             58.5558         estimate D2E/DX2                !
 ! D4    D(10,1,2,3)            61.4242         estimate D2E/DX2                !
 ! D5    D(10,1,2,4)           -58.9422         estimate D2E/DX2                !
 ! D6    D(10,1,2,5)          -178.4193         estimate D2E/DX2                !
 ! D7    D(11,1,2,3)           179.7717         estimate D2E/DX2                !
 ! D8    D(11,1,2,4)            59.4054         estimate D2E/DX2                !
 ! D9    D(11,1,2,5)           -60.0717         estimate D2E/DX2                !
 ! D10   D(2,1,6,7)            -58.4898         estimate D2E/DX2                !
 ! D11   D(2,1,6,8)           -177.9678         estimate D2E/DX2                !
 ! D12   D(2,1,6,9)             61.6684         estimate D2E/DX2                !
 ! D13   D(10,1,6,7)           178.4849         estimate D2E/DX2                !
 ! D14   D(10,1,6,8)            59.0068         estimate D2E/DX2                !
 ! D15   D(10,1,6,9)           -61.3569         estimate D2E/DX2                !
 ! D16   D(11,1,6,7)            60.137          estimate D2E/DX2                !
 ! D17   D(11,1,6,8)           -59.3411         estimate D2E/DX2                !
 ! D18   D(11,1,6,9)          -179.7048         estimate D2E/DX2                !
 ! D19   D(2,1,10,12)         -159.538          estimate D2E/DX2                !
 ! D20   D(2,1,10,13)           36.6847         estimate D2E/DX2                !
 ! D21   D(6,1,10,12)          -36.718          estimate D2E/DX2                !
 ! D22   D(6,1,10,13)          159.5046         estimate D2E/DX2                !
 ! D23   D(11,1,10,12)          81.8726         estimate D2E/DX2                !
 ! D24   D(11,1,10,13)         -81.9048         estimate D2E/DX2                !
 --------------------------------------------------------------------------------
 Trust Radius=3.00D-01 FncErr=1.00D-07 GrdErr=1.00D-07
 Number of steps in this run=     67 maximum allowed number of steps=    100.
 GradGradGradGradGradGradGradGradGradGradGradGradGradGradGradGradGradGrad

                          Input orientation:                          
 ---------------------------------------------------------------------
 Center     Atomic      Atomic             Coordinates (Angstroms)
 Number     Number       Type             X           Y           Z
 ---------------------------------------------------------------------
      1          6           0        0.000000    0.000000    0.000000
      2          6           0        0.000000    0.000000    1.527580
      3          1           0        1.019549    0.000000    1.929690
      4          1           0       -0.516912   -0.882241    1.921573
      5          1           0       -0.514792    0.886048    1.914519
      6          6           0        0.680992    1.259504   -0.532326
      7          1           0        0.173784    2.158256   -0.165178
      8          1           0        0.655349    1.288315   -1.627447
      9          1           0        1.729868    1.312542   -0.218930
     10          6           0        0.670519   -1.231056   -0.531060
     11          1           0       -1.040352   -0.004145   -0.346452
     12          1           0        1.054179   -1.250611   -1.545872
     13          1           0        0.550998   -2.181957   -0.022195
 ---------------------------------------------------------------------
                    Distance matrix (angstroms):
                    1          2          3          4          5
     1  C    0.000000
     2  C    1.527580   0.000000
     3  H    2.182472   1.095980   0.000000
     4  H    2.176692   1.095800   1.771758   0.000000
     5  H    2.171514   1.095360   1.771867   1.768304   0.000000
     6  C    1.527570   2.508647   2.786125   3.470398   2.748894
     7  H    2.171532   2.748399   3.124398   3.751828   2.533336
     8  H    2.176654   3.470365   3.800740   4.322158   3.751876
     9  H    2.182462   2.786666   2.616083   3.800901   3.126020
    10  C    1.499040   2.490601   2.773556   2.747194   3.444989
    11  H    1.096530   2.143442   3.069858   2.487766   2.486090
    12  H    2.250565   3.481584   3.693882   3.824552   4.359047
    13  H    2.250562   2.732460   2.964850   2.570589   3.781458
                    6          7          8          9         10
     6  C    0.000000
     7  H    1.095360   0.000000
     8  H    1.095800   1.768314   0.000000
     9  H    1.095980   1.771870   1.771750   0.000000
    10  C    2.490582   3.445004   2.747640   2.773001   0.000000
    11  H    2.143451   2.486556   2.487328   3.069861   2.113403
    12  H    2.732621   3.781770   2.571354   2.964301   1.085090
    13  H    3.481492   4.358920   3.824985   3.693232   1.085100
                   11         12         13
    11  H    0.000000
    12  H    2.716495   0.000000
    13  H    2.716690   1.855314   0.000000
 Stoichiometry    C4H9(1+)
 Framework group  C1[X(C4H9)]
 Deg. of freedom    33
 Full point group                 C1      NOp   1
 Largest Abelian subgroup         C1      NOp   1
 Largest concise Abelian subgroup C1      NOp   1
                         Standard orientation:                         
 ---------------------------------------------------------------------
 Center     Atomic      Atomic             Coordinates (Angstroms)
 Number     Number       Type             X           Y           Z
 ---------------------------------------------------------------------
      1          6           0        0.000014    0.056944    0.366158
      2          6           0       -1.254394   -0.676941   -0.104347
      3          1           0       -1.307832   -0.721358   -1.198122
      4          1           0       -2.161119   -0.178675    0.256705
      5          1           0       -1.267103   -1.704217    0.275595
      6          6           0        1.254253   -0.677183   -0.104384
      7          1           0        1.266233   -1.704832    0.274574
      8          1           0        2.161039   -0.179719    0.257620
      9          1           0        1.308251   -0.720568   -1.198172
     10          6           0        0.000156    1.474550   -0.121196
     11          1           0        0.000018    0.075171    1.462536
     12          1           0        0.927824    2.034982   -0.173820
     13          1           0       -0.927490    2.034992   -0.174301
 ---------------------------------------------------------------------
 Rotational constants (GHZ):      8.4403731      8.0177548      4.6783329
 Standard basis: 6-31G(d,p) (6D, 7F)
 There are   105 symmetry adapted cartesian basis functions of A   symmetry.
 There are   105 symmetry adapted basis functions of A   symmetry.
   105 basis functions,   175 primitive gaussians,   105 cartesian basis functions
    16 alpha electrons       16 beta electrons
       nuclear repulsion energy       126.6763175679 Hartrees.
 NAtoms=   13 NActive=   13 NUniq=   13 SFac= 1.00D+00 NAtFMM=   60 NAOKFM=F Big=F
 Integral buffers will be    131072 words long.
 Raffenetti 1 integral format.
 Two-electron integral symmetry is turned on.
 One-electron integrals computed using PRISM.
 PrsmSu:  requested number of processors reduced to:  10 ShMem   1 Linda.
 NBasis=   105 RedAO= T EigKep=  4.73D-03  NBF=   105
 NBsUse=   105 1.00D-06 EigRej= -1.00D+00 NBFU=   105
 ExpMin= 1.61D-01 ExpMax= 3.05D+03 ExpMxC= 4.57D+02 IAcc=1 IRadAn=         1 AccDes= 0.00D+00
 Harris functional with IExCor=  205 and IRadAn=       1 diagonalized for initial guess.
 HarFok:  IExCor=  205 AccDes= 0.00D+00 IRadAn=         1 IDoV= 1 UseB2=F ITyADJ=14
 ICtDFT=  3500011 ScaDFX=  1.000000  1.000000  1.000000  1.000000
 FoFCou: FMM=F IPFlag=           0 FMFlag=      100000 FMFlg1=           0
         NFxFlg=           0 DoJE=T BraDBF=F KetDBF=T FulRan=T
         wScrn=  0.000000 ICntrl=     500 IOpCl=  0 I1Cent=   200000004 NGrid=           0
         NMat0=    1 NMatS0=      1 NMatT0=    0 NMatD0=    1 NMtDS0=    0 NMtDT0=    0
 Petite list used in FoFCou.
 Keep R1 ints in memory in canonical form, NReq=16424213.
 Requested convergence on RMS density matrix=1.00D-08 within 128 cycles.
 Requested convergence on MAX density matrix=1.00D-06.
 Requested convergence on             energy=1.00D-06.
 No special actions if energy rises.
 SCF Done:  E(RHF) =  -156.395563169     A.U. after   13 cycles
            NFock= 13  Conv=0.27D-08     -V/T= 2.0013

 **********************************************************************

            Population analysis using the SCF density.

 **********************************************************************

 Orbital symmetries:
       Occupied  (A) (A) (A) (A) (A) (A) (A) (A) (A) (A) (A) (A)
                 (A) (A) (A) (A)
       Virtual   (A) (A) (A) (A) (A) (A) (A) (A) (A) (A) (A) (A)
                 (A) (A) (A) (A) (A) (A) (A) (A) (A) (A) (A) (A)
                 (A) (A) (A) (A) (A) (A) (A) (A) (A) (A) (A) (A)
                 (A) (A) (A) (A) (A) (A) (A) (A) (A) (A) (A) (A)
                 (A) (A) (A) (A) (A) (A) (A) (A) (A) (A) (A) (A)
                 (A) (A) (A) (A) (A) (A) (A) (A) (A) (A) (A) (A)
                 (A) (A) (A) (A) (A) (A) (A) (A) (A) (A) (A) (A)
                 (A) (A) (A) (A) (A)
 The electronic state is 1-A.
 Alpha  occ. eigenvalues --  -11.61848 -11.47075 -11.40584 -11.40581  -1.33423
 Alpha  occ. eigenvalues --   -1.17376  -1.12420  -1.00326  -0.90622  -0.86174
 Alpha  occ. eigenvalues --   -0.80214  -0.73901  -0.71617  -0.70754  -0.68703
 Alpha  occ. eigenvalues --   -0.67061
 Alpha virt. eigenvalues --   -0.22077   0.02317   0.07169   0.07204   0.10398
 Alpha virt. eigenvalues --    0.12575   0.12937   0.15312   0.17071   0.17663
 Alpha virt. eigenvalues --    0.19283   0.21193   0.24071   0.46744   0.48927
 Alpha virt. eigenvalues --    0.52138   0.53959   0.54184   0.58057   0.64243
 Alpha virt. eigenvalues --    0.72458   0.73725   0.75267   0.77873   0.83896
 Alpha virt. eigenvalues --    0.83983   0.88404   0.92774   0.94091   0.98132
 Alpha virt. eigenvalues --    0.98369   0.99151   1.00803   1.01985   1.05042
 Alpha virt. eigenvalues --    1.15879   1.32431   1.34608   1.45551   1.52945
 Alpha virt. eigenvalues --    1.64086   1.65149   1.69900   1.81945   1.85833
 Alpha virt. eigenvalues --    1.91133   1.93505   1.95272   2.04102   2.07203
 Alpha virt. eigenvalues --    2.08088   2.17278   2.17510   2.21357   2.23844
 Alpha virt. eigenvalues --    2.25729   2.26311   2.29268   2.39431   2.40824
 Alpha virt. eigenvalues --    2.43285   2.44581   2.48446   2.56220   2.56865
 Alpha virt. eigenvalues --    2.71442   2.76960   2.79835   2.82766   2.85709
 Alpha virt. eigenvalues --    2.90692   2.91676   3.02708   3.02986   3.05240
 Alpha virt. eigenvalues --    3.10386   3.34049   3.36192   3.40451   3.50722
 Alpha virt. eigenvalues --    3.50981   3.61302   3.64758   3.69309   3.69532
 Alpha virt. eigenvalues --    4.36796   4.58054   4.74270   4.88062
          Condensed to atoms (all electrons):
               1          2          3          4          5          6
     1  C    5.277718   0.299756  -0.039752  -0.040375  -0.031394   0.299730
     2  C    0.299756   4.997986   0.405650   0.401513   0.408971  -0.069287
     3  H   -0.039752   0.405650   0.521953  -0.025796  -0.020646  -0.003002
     4  H   -0.040375   0.401513  -0.025796   0.526290  -0.019095   0.004446
     5  H   -0.031394   0.408971  -0.020646  -0.019095   0.468486  -0.003498
     6  C    0.299730  -0.069287  -0.003002   0.004446  -0.003498   4.997980
     7  H   -0.031400  -0.003498  -0.000160   0.000003   0.001581   0.408982
     8  H   -0.040364   0.004446  -0.000035  -0.000115   0.000003   0.401509
     9  H   -0.039755  -0.003002   0.002132  -0.000035  -0.000159   0.405645
    10  C    0.307580  -0.060591  -0.005931  -0.004044   0.004186  -0.060575
    11  H    0.392057  -0.027814   0.003349  -0.002499  -0.003791  -0.027804
    12  H   -0.027005   0.002660  -0.000057  -0.000040  -0.000052  -0.001802
    13  H   -0.027007  -0.001804   0.000039   0.002153  -0.000040   0.002660
               7          8          9         10         11         12
     1  C   -0.031400  -0.040364  -0.039755   0.307580   0.392057  -0.027005
     2  C   -0.003498   0.004446  -0.003002  -0.060591  -0.027814   0.002660
     3  H   -0.000160  -0.000035   0.002132  -0.005931   0.003349  -0.000057
     4  H    0.000003  -0.000115  -0.000035  -0.004044  -0.002499  -0.000040
     5  H    0.001581   0.000003  -0.000159   0.004186  -0.003791  -0.000052
     6  C    0.408982   0.401509   0.405645  -0.060575  -0.027804  -0.001802
     7  H    0.468465  -0.019094  -0.020649   0.004185  -0.003786  -0.000040
     8  H   -0.019094   0.526241  -0.025795  -0.004039  -0.002505   0.002151
     9  H   -0.020649  -0.025795   0.522001  -0.005938   0.003350   0.000038
    10  C    0.004185  -0.004039  -0.005938   4.958620  -0.028706   0.374004
    11  H   -0.003786  -0.002505   0.003350  -0.028706   0.429933   0.000355
    12  H   -0.000040   0.002151   0.000038   0.374004   0.000355   0.382583
    13  H   -0.000052  -0.000040  -0.000057   0.374009   0.000357  -0.014992
              13
     1  C   -0.027007
     2  C   -0.001804
     3  H    0.000039
     4  H    0.002153
     5  H   -0.000040
     6  C    0.002660
     7  H   -0.000052
     8  H   -0.000040
     9  H   -0.000057
    10  C    0.374009
    11  H    0.000357
    12  H   -0.014992
    13  H    0.382578
 Mulliken charges:
               1
     1  C   -0.299789
     2  C   -0.354986
     3  H    0.162257
     4  H    0.157592
     5  H    0.195448
     6  C   -0.354983
     7  H    0.195463
     8  H    0.157635
     9  H    0.162224
    10  C    0.147240
    11  H    0.267506
    12  H    0.282196
    13  H    0.282196
 Sum of Mulliken charges =   1.00000
 Mulliken charges with hydrogens summed into heavy atoms:
               1
     1  C   -0.032283
     2  C    0.160311
     6  C    0.160340
    10  C    0.711633
 Electronic spatial extent (au):  <R**2>=            317.1115
 Charge=              1.0000 electrons
 Dipole moment (field-independent basis, Debye):
    X=              0.0006    Y=              4.4406    Z=              0.0599  Tot=              4.4410
 Quadrupole moment (field-independent basis, Debye-Ang):
   XX=            -21.7863   YY=            -13.2739   ZZ=            -22.9695
   XY=              0.0008   XZ=              0.0001   YZ=             -1.0307
 Traceless Quadrupole moment (field-independent basis, Debye-Ang):
   XX=             -2.4431   YY=              6.0694   ZZ=             -3.6263
   XY=              0.0008   XZ=              0.0001   YZ=             -1.0307
 Octapole moment (field-independent basis, Debye-Ang**2):
  XXX=              0.0012  YYY=             18.3217  ZZZ=              0.5364  XYY=              0.0010
  XXY=              3.0796  XXZ=              0.0642  XZZ=              0.0010  YZZ=              1.6216
  YYZ=             -0.0941  XYZ=              0.0012
 Hexadecapole moment (field-independent basis, Debye-Ang**3):
 XXXX=           -184.6664 YYYY=           -125.5379 ZZZZ=            -43.7395 XXXY=              0.0004
 XXXZ=              0.0038 YYYX=              0.0026 YYYZ=             -5.1255 ZZZX=             -0.0007
 ZZZY=             -0.0453 XXYY=            -49.7899 XXZZ=            -41.0349 YYZZ=            -35.3379
 XXYZ=             -0.2015 YYXZ=             -0.0005 ZZXY=              0.0025
 N-N= 1.266763175679D+02 E-N=-6.090837679496D+02  KE= 1.561936152625D+02
 PrsmSu:  requested number of processors reduced to:  10 ShMem   1 Linda.
 Calling FoFJK, ICntrl=      2127 FMM=F ISym2X=0 I1Cent= 0 IOpClX= 0 NMat=1 NMatS=1 NMatT=0.
 ***** Axes restored to original set *****
 -------------------------------------------------------------------
 Center     Atomic                   Forces (Hartrees/Bohr)
 Number     Number              X              Y              Z
 -------------------------------------------------------------------
      1        6           0.033797906   -0.000146575    0.011110265
      2        6          -0.006019802   -0.009017755    0.020495474
      3        1          -0.007449317    0.001678088   -0.003759636
      4        1           0.003009846    0.006601397   -0.000769507
      5        1           0.004708047   -0.007355352   -0.005481157
      6        6           0.006467404    0.014072623   -0.017280937
      7        1           0.003565679   -0.009454218   -0.002063071
      8        1           0.000436051    0.001814853    0.007054382
      9        1          -0.008486208   -0.000226676   -0.000615584
     10        6          -0.052961175    0.010360574   -0.011158810
     11        1           0.001268929   -0.012864562   -0.007448928
     12        1           0.010147764    0.001002368    0.007028837
     13        1           0.011514876    0.003535236    0.002888672
 -------------------------------------------------------------------
 Cartesian Forces:  Max     0.052961175 RMS     0.012782267

 GradGradGradGradGradGradGradGradGradGradGradGradGradGradGradGradGradGrad
 Berny optimization.
 FormGI is forming the generalized inverse of G from B-inverse, IUseBI=4.
 Internal  Forces:  Max     0.025794885 RMS     0.006137194
 Search for a local minimum.
 Step number   1 out of a maximum of   67
 All quantities printed in internal units (Hartrees-Bohrs-Radians)
 Mixed Optimization -- RFO/linear search
 Second derivative matrix not updated -- first step.
 ITU=  0
     Eigenvalues ---    0.00401   0.00401   0.00779   0.00972   0.04085
     Eigenvalues ---    0.04836   0.05482   0.05482   0.05577   0.05577
     Eigenvalues ---    0.05793   0.16000   0.16000   0.16000   0.16000
     Eigenvalues ---    0.16000   0.16000   0.16000   0.16000   0.16608
     Eigenvalues ---    0.18029   0.29648   0.29649   0.32478   0.34069
     Eigenvalues ---    0.34131   0.34131   0.34151   0.34151   0.34200
     Eigenvalues ---    0.34200   0.35385   0.35386
 RFO step:  Lambda=-2.05569140D-02 EMin= 4.01116911D-03
 Linear search not attempted -- first point.
 Iteration  1 RMS(Cart)=  0.03792922 RMS(Int)=  0.01662471
 Iteration  2 RMS(Cart)=  0.02147845 RMS(Int)=  0.00720706
 Iteration  3 RMS(Cart)=  0.00027046 RMS(Int)=  0.00719990
 Iteration  4 RMS(Cart)=  0.00000351 RMS(Int)=  0.00719990
 Iteration  5 RMS(Cart)=  0.00000006 RMS(Int)=  0.00719990
 Variable       Old X    -DE/DX   Delta X   Delta X   Delta X     New X
                                 (Linear)    (Quad)   (Total)
    R1        2.88671   0.01049   0.00000   0.03307   0.03307   2.91978
    R2        2.88669   0.01050   0.00000   0.03311   0.03311   2.91980
    R3        2.83278  -0.02579   0.00000  -0.07469  -0.07469   2.75808
    R4        2.07214   0.00120   0.00000   0.00332   0.00332   2.07546
    R5        2.07110  -0.00831   0.00000  -0.02296  -0.02296   2.04814
    R6        2.07076  -0.00701   0.00000  -0.01936  -0.01936   2.05140
    R7        2.06993  -0.01010   0.00000  -0.02785  -0.02785   2.04208
    R8        2.06993  -0.01010   0.00000  -0.02786  -0.02786   2.04207
    R9        2.07076  -0.00701   0.00000  -0.01937  -0.01937   2.05139
   R10        2.07110  -0.00831   0.00000  -0.02296  -0.02296   2.04814
   R11        2.05052  -0.00300   0.00000  -0.00802  -0.00802   2.04250
   R12        2.05054  -0.00301   0.00000  -0.00804  -0.00804   2.04250
    A1        1.92674   0.00555   0.00000   0.06586   0.06386   1.99060
    A2        1.93293   0.00056   0.00000   0.01982   0.01727   1.95020
    A3        1.89226   0.00038   0.00000   0.00616   0.00503   1.89729
    A4        1.93291   0.00055   0.00000   0.01975   0.01720   1.95012
    A5        1.89228   0.00038   0.00000   0.00612   0.00499   1.89727
    A6        1.88530  -0.00774   0.00000  -0.12260  -0.12223   1.76307
    A7        1.94647  -0.00106   0.00000  -0.00595  -0.00618   1.94029
    A8        1.93858   0.00385   0.00000   0.02607   0.02610   1.96468
    A9        1.93184  -0.00370   0.00000  -0.02516  -0.02521   1.90663
   A10        1.88274  -0.00005   0.00000   0.00845   0.00832   1.89106
   A11        1.88346   0.00104   0.00000  -0.00321  -0.00352   1.87994
   A12        1.87817  -0.00003   0.00000   0.00001   0.00020   1.87837
   A13        1.93188  -0.00370   0.00000  -0.02522  -0.02528   1.90660
   A14        1.93854   0.00385   0.00000   0.02610   0.02613   1.96467
   A15        1.94646  -0.00105   0.00000  -0.00591  -0.00614   1.94033
   A16        1.87818  -0.00003   0.00000   0.00002   0.00021   1.87840
   A17        1.88346   0.00104   0.00000  -0.00322  -0.00353   1.87993
   A18        1.88273  -0.00005   0.00000   0.00845   0.00832   1.89104
   A19        2.09934   0.00340   0.00000   0.04975   0.01873   2.11807
   A20        2.09932   0.00341   0.00000   0.04978   0.01876   2.11808
   A21        2.05075  -0.00322   0.00000   0.01424  -0.01725   2.03350
    D1       -1.07513   0.00103   0.00000   0.00972   0.00935  -1.06579
    D2        3.10726  -0.00082   0.00000  -0.01479  -0.01520   3.09206
    D3        1.02199  -0.00086   0.00000  -0.01529  -0.01548   1.00652
    D4        1.07205   0.00597   0.00000   0.09420   0.09472   1.16677
    D5       -1.02873   0.00412   0.00000   0.06969   0.07018  -0.95856
    D6       -3.11400   0.00408   0.00000   0.06919   0.06990  -3.04411
    D7        3.13761  -0.00290   0.00000  -0.03981  -0.04011   3.09750
    D8        1.03682  -0.00475   0.00000  -0.06432  -0.06466   0.97216
    D9       -1.04845  -0.00479   0.00000  -0.06482  -0.06493  -1.11338
   D10       -1.02084   0.00086   0.00000   0.01520   0.01538  -1.00546
   D11       -3.10612   0.00082   0.00000   0.01471   0.01511  -3.09102
   D12        1.07632  -0.00103   0.00000  -0.00985  -0.00948   1.06684
   D13        3.11515  -0.00408   0.00000  -0.06932  -0.07003   3.04512
   D14        1.02986  -0.00413   0.00000  -0.06981  -0.07030   0.95957
   D15       -1.07088  -0.00598   0.00000  -0.09436  -0.09488  -1.16576
   D16        1.04959   0.00479   0.00000   0.06475   0.06486   1.11445
   D17       -1.03570   0.00475   0.00000   0.06426   0.06459  -0.97110
   D18       -3.13644   0.00290   0.00000   0.03970   0.04001  -3.09644
   D19       -2.78446   0.00317   0.00000   0.17848   0.17747  -2.60699
   D20        0.64027  -0.01102   0.00000  -0.28995  -0.28786   0.35241
   D21       -0.64085   0.01102   0.00000   0.28999   0.28789  -0.35296
   D22        2.78388  -0.00317   0.00000  -0.17845  -0.17744   2.60644
   D23        1.42895   0.00709   0.00000   0.23419   0.23265   1.66159
   D24       -1.42951  -0.00709   0.00000  -0.23424  -0.23269  -1.66219
         Item               Value     Threshold  Converged?
 Maximum Force            0.025795     0.000450     NO 
 RMS     Force            0.006137     0.000300     NO 
 Maximum Displacement     0.217016     0.001800     NO 
 RMS     Displacement     0.050814     0.001200     NO 
 Predicted change in Energy=-1.502563D-02
 GradGradGradGradGradGradGradGradGradGradGradGradGradGradGradGradGradGrad

                          Input orientation:                          
 ---------------------------------------------------------------------
 Center     Atomic      Atomic             Coordinates (Angstroms)
 Number     Number       Type             X           Y           Z
 ---------------------------------------------------------------------
      1          6           0        0.011700    0.013552    0.012200
      2          6           0       -0.006604   -0.032602    1.556483
      3          1           0        0.999362   -0.040881    1.959779
      4          1           0       -0.536144   -0.898654    1.941148
      5          1           0       -0.504612    0.849316    1.933245
      6          6           0        0.697125    1.268915   -0.572239
      7          1           0        0.200752    2.152643   -0.197572
      8          1           0        0.652249    1.301439   -1.656374
      9          1           0        1.737165    1.322612   -0.272040
     10          6           0        0.555679   -1.214506   -0.558888
     11          1           0       -1.023131   -0.025274   -0.353653
     12          1           0        1.089083   -1.209509   -1.498931
     13          1           0        0.590557   -2.132397    0.010744
 ---------------------------------------------------------------------
                    Distance matrix (angstroms):
                    1          2          3          4          5
     1  C    0.000000
     2  C    1.545081   0.000000
     3  H    2.184377   1.083829   0.000000
     4  H    2.202973   1.085553   1.758949   0.000000
     5  H    2.157659   1.080620   1.747882   1.748272   0.000000
     6  C    1.545093   2.592419   2.866710   3.540680   2.810281
     7  H    2.157651   2.809805   3.178598   3.798361   2.595492
     8  H    2.202974   3.540650   3.872837   4.381193   3.798434
     9  H    2.184414   2.867200   2.717440   3.873004   3.180071
    10  C    1.459513   2.487540   2.813882   2.746274   3.405041
    11  H    1.098285   2.163793   3.072896   2.503210   2.502733
    12  H    2.222645   3.452709   3.651906   3.817347   4.307952
    13  H    2.222650   2.674893   2.887958   2.553045   3.712953
                    6          7          8          9         10
     6  C    0.000000
     7  H    1.080619   0.000000
     8  H    1.085551   1.748286   0.000000
     9  H    1.083830   1.747874   1.758940   0.000000
    10  C    2.487481   3.405028   2.746594   2.813389   0.000000
    11  H    2.163789   2.503113   2.502828   3.072897   1.987218
    12  H    2.674879   3.713050   2.553522   2.887371   1.080845
    13  H    3.452557   4.307774   3.817633   3.651270   1.080843
                   11         12         13
    11  H    0.000000
    12  H    2.678716   0.000000
    13  H    2.678944   1.838306   0.000000
 Stoichiometry    C4H9(1+)
 Framework group  C1[X(C4H9)]
 Deg. of freedom    33
 Full point group                 C1      NOp   1
 Largest Abelian subgroup         C1      NOp   1
 Largest concise Abelian subgroup C1      NOp   1
                         Standard orientation:                         
 ---------------------------------------------------------------------
 Center     Atomic      Atomic             Coordinates (Angstroms)
 Number     Number       Type             X           Y           Z
 ---------------------------------------------------------------------
      1          6           0       -0.000010    0.053344    0.335069
      2          6           0       -1.296336   -0.666156   -0.099827
      3          1           0       -1.358599   -0.742103   -1.179198
      4          1           0       -2.190657   -0.166865    0.259790
      5          1           0       -1.298292   -1.669676    0.301027
      6          6           0        1.296083   -0.666585   -0.099853
      7          1           0        1.297199   -1.670456    0.300121
      8          1           0        2.190536   -0.168160    0.260629
      9          1           0        1.358841   -0.741639   -1.179259
     10          6           0        0.000282    1.456470   -0.066699
     11          1           0        0.000027    0.148339    1.429238
     12          1           0        0.919570    1.973937   -0.301991
     13          1           0       -0.918736    1.974184   -0.302496
 ---------------------------------------------------------------------
 Rotational constants (GHZ):      8.7445502      7.6788879      4.6107193
 Standard basis: 6-31G(d,p) (6D, 7F)
 There are   105 symmetry adapted cartesian basis functions of A   symmetry.
 There are   105 symmetry adapted basis functions of A   symmetry.
   105 basis functions,   175 primitive gaussians,   105 cartesian basis functions
    16 alpha electrons       16 beta electrons
       nuclear repulsion energy       126.7343775406 Hartrees.
 NAtoms=   13 NActive=   13 NUniq=   13 SFac= 1.00D+00 NAtFMM=   60 NAOKFM=F Big=F
 Integral buffers will be    131072 words long.
 Raffenetti 1 integral format.
 Two-electron integral symmetry is turned on.
 One-electron integrals computed using PRISM.
 PrsmSu:  requested number of processors reduced to:  10 ShMem   1 Linda.
 NBasis=   105 RedAO= T EigKep=  4.75D-03  NBF=   105
 NBsUse=   105 1.00D-06 EigRej= -1.00D+00 NBFU=   105
 Initial guess from the checkpoint file:  "04_24_Homework42b_Interm2.chk"
 B after Tr=     0.000000    0.000000    0.000000
         Rot=    0.999987    0.005072    0.000001    0.000042 Ang=   0.58 deg.
 ExpMin= 1.61D-01 ExpMax= 3.05D+03 ExpMxC= 4.57D+02 IAcc=1 IRadAn=         1 AccDes= 0.00D+00
 Harris functional with IExCor=  205 and IRadAn=       1 diagonalized for initial guess.
 HarFok:  IExCor=  205 AccDes= 0.00D+00 IRadAn=         1 IDoV= 1 UseB2=F ITyADJ=14
 ICtDFT=  3500011 ScaDFX=  1.000000  1.000000  1.000000  1.000000
 FoFCou: FMM=F IPFlag=           0 FMFlag=      100000 FMFlg1=           0
         NFxFlg=           0 DoJE=T BraDBF=F KetDBF=T FulRan=T
         wScrn=  0.000000 ICntrl=     500 IOpCl=  0 I1Cent=   200000004 NGrid=           0
         NMat0=    1 NMatS0=      1 NMatT0=    0 NMatD0=    1 NMtDS0=    0 NMtDT0=    0
 Petite list used in FoFCou.
 Keep R1 ints in memory in canonical form, NReq=16424206.
 Requested convergence on RMS density matrix=1.00D-08 within 128 cycles.
 Requested convergence on MAX density matrix=1.00D-06.
 Requested convergence on             energy=1.00D-06.
 No special actions if energy rises.
 SCF Done:  E(RHF) =  -156.402681570     A.U. after   12 cycles
            NFock= 12  Conv=0.28D-08     -V/T= 2.0007
 PrsmSu:  requested number of processors reduced to:  10 ShMem   1 Linda.
 Calling FoFJK, ICntrl=      2127 FMM=F ISym2X=0 I1Cent= 0 IOpClX= 0 NMat=1 NMatS=1 NMatT=0.
 ***** Axes restored to original set *****
 -------------------------------------------------------------------
 Center     Atomic                   Forces (Hartrees/Bohr)
 Number     Number              X              Y              Z
 -------------------------------------------------------------------
      1        6           0.013463492   -0.006020369    0.000781904
      2        6          -0.003387580   -0.001350462    0.002323139
      3        1           0.000522933    0.000663910   -0.001640574
      4        1           0.000017957    0.000394633   -0.002188492
      5        1          -0.000296247    0.000951426   -0.000665594
      6        6          -0.001481601    0.002173231   -0.003440744
      7        1          -0.000811482    0.000003844    0.000883237
      8        1          -0.001066511   -0.001614599    0.001096483
      9        1          -0.000467796   -0.001165286    0.001356285
     10        6           0.015782268    0.012575101    0.012896820
     11        1          -0.005985795   -0.001496414   -0.002895981
     12        1          -0.008022903   -0.002329117   -0.004624714
     13        1          -0.008266736   -0.002785896   -0.003881769
 -------------------------------------------------------------------
 Cartesian Forces:  Max     0.015782268 RMS     0.005256275

 GradGradGradGradGradGradGradGradGradGradGradGradGradGradGradGradGradGrad
 Berny optimization.
 Using GEDIIS/GDIIS optimizer.
 FormGI is forming the generalized inverse of G from B-inverse, IUseBI=4.
 Internal  Forces:  Max     0.008184015 RMS     0.002558246
 Search for a local minimum.
 Step number   2 out of a maximum of   67
 All quantities printed in internal units (Hartrees-Bohrs-Radians)
 Mixed Optimization -- RFO/linear search
 Update second derivatives using D2CorX and points    1    2
 DE= -7.12D-03 DEPred=-1.50D-02 R= 4.74D-01
 Trust test= 4.74D-01 RLast= 6.56D-01 DXMaxT set to 3.00D-01
 ITU=  0  0
 Use linear search instead of GDIIS.
     Eigenvalues ---    0.00401   0.00401   0.00779   0.02024   0.03512
     Eigenvalues ---    0.05230   0.05362   0.05510   0.05723   0.05744
     Eigenvalues ---    0.06459   0.15413   0.16000   0.16000   0.16000
     Eigenvalues ---    0.16000   0.16000   0.16000   0.16264   0.17814
     Eigenvalues ---    0.18591   0.25729   0.29649   0.30401   0.33719
     Eigenvalues ---    0.34131   0.34141   0.34151   0.34164   0.34200
     Eigenvalues ---    0.34495   0.35374   0.35386
 RFO step:  Lambda=-6.48262537D-03 EMin= 4.01114163D-03
 Quartic linear search produced a step of -0.22921.
 Iteration  1 RMS(Cart)=  0.06575014 RMS(Int)=  0.00691530
 Iteration  2 RMS(Cart)=  0.00821883 RMS(Int)=  0.00191494
 Iteration  3 RMS(Cart)=  0.00005131 RMS(Int)=  0.00191430
 Iteration  4 RMS(Cart)=  0.00000008 RMS(Int)=  0.00191430
 Variable       Old X    -DE/DX   Delta X   Delta X   Delta X     New X
                                 (Linear)    (Quad)   (Total)
    R1        2.91978  -0.00215  -0.00758   0.02461   0.01703   2.93681
    R2        2.91980  -0.00215  -0.00759   0.02466   0.01707   2.93688
    R3        2.75808  -0.00818   0.01712  -0.08749  -0.07037   2.68771
    R4        2.07546   0.00666  -0.00076   0.01802   0.01726   2.09272
    R5        2.04814  -0.00013   0.00526  -0.02126  -0.01599   2.03215
    R6        2.05140  -0.00110   0.00444  -0.02015  -0.01571   2.03569
    R7        2.04208   0.00068   0.00638  -0.02390  -0.01752   2.02456
    R8        2.04207   0.00068   0.00639  -0.02390  -0.01752   2.02456
    R9        2.05139  -0.00110   0.00444  -0.02015  -0.01571   2.03568
   R10        2.04814  -0.00013   0.00526  -0.02126  -0.01599   2.03215
   R11        2.04250   0.00005   0.00184  -0.00721  -0.00537   2.03713
   R12        2.04250   0.00005   0.00184  -0.00723  -0.00539   2.03711
    A1        1.99060   0.00043  -0.01464   0.06836   0.05195   2.04255
    A2        1.95020   0.00092  -0.00396   0.02946   0.02292   1.97312
    A3        1.89729  -0.00047  -0.00115  -0.00939  -0.00998   1.88731
    A4        1.95012   0.00092  -0.00394   0.02939   0.02286   1.97297
    A5        1.89727  -0.00047  -0.00114  -0.00945  -0.01004   1.88723
    A6        1.76307  -0.00167   0.02802  -0.13559  -0.10726   1.65581
    A7        1.94029  -0.00180   0.00142  -0.01423  -0.01288   1.92741
    A8        1.96468  -0.00202  -0.00598   0.01432   0.00837   1.97305
    A9        1.90663  -0.00064   0.00578  -0.02598  -0.02031   1.88632
   A10        1.89106   0.00217  -0.00191   0.01768   0.01583   1.90689
   A11        1.87994   0.00109   0.00081   0.00136   0.00194   1.88189
   A12        1.87837   0.00144  -0.00005   0.00726   0.00722   1.88559
   A13        1.90660  -0.00064   0.00579  -0.02605  -0.02037   1.88624
   A14        1.96467  -0.00202  -0.00599   0.01435   0.00839   1.97306
   A15        1.94033  -0.00180   0.00141  -0.01420  -0.01286   1.92746
   A16        1.87840   0.00144  -0.00005   0.00727   0.00722   1.88562
   A17        1.87993   0.00109   0.00081   0.00135   0.00194   1.88186
   A18        1.89104   0.00217  -0.00191   0.01769   0.01584   1.90689
   A19        2.11807   0.00116  -0.00429   0.02492   0.01271   2.13078
   A20        2.11808   0.00117  -0.00430   0.02497   0.01276   2.13084
   A21        2.03350  -0.00065   0.00395  -0.01636  -0.02039   2.01311
    D1       -1.06579  -0.00091  -0.00214  -0.00972  -0.01235  -1.07814
    D2        3.09206  -0.00098   0.00348  -0.03249  -0.02940   3.06266
    D3        1.00652  -0.00107   0.00355  -0.03318  -0.02999   0.97653
    D4        1.16677   0.00154  -0.02171   0.11521   0.09380   1.26058
    D5       -0.95856   0.00147  -0.01608   0.09245   0.07676  -0.88180
    D6       -3.04411   0.00138  -0.01602   0.09175   0.07617  -2.96794
    D7        3.09750  -0.00025   0.00919  -0.03654  -0.02739   3.07011
    D8        0.97216  -0.00031   0.01482  -0.05930  -0.04444   0.92773
    D9       -1.11338  -0.00040   0.01488  -0.06000  -0.04502  -1.15841
   D10       -1.00546   0.00107  -0.00353   0.03296   0.02978  -0.97568
   D11       -3.09102   0.00098  -0.00346   0.03228   0.02921  -3.06180
   D12        1.06684   0.00091   0.00217   0.00946   0.01212   1.07896
   D13        3.04512  -0.00139   0.01605  -0.09201  -0.07640   2.96873
   D14        0.95957  -0.00148   0.01611  -0.09268  -0.07696   0.88260
   D15       -1.16576  -0.00154   0.02175  -0.11550  -0.09406  -1.25983
   D16        1.11445   0.00040  -0.01487   0.05981   0.04485   1.15930
   D17       -0.97110   0.00031  -0.01481   0.05913   0.04428  -0.92682
   D18       -3.09644   0.00025  -0.00917   0.03631   0.02718  -3.06925
   D19       -2.60699  -0.00662  -0.04068  -0.18232  -0.22266  -2.82965
   D20        0.35241   0.00449   0.06598   0.03969   0.10539   0.45780
   D21       -0.35296  -0.00449  -0.06599  -0.03968  -0.10539  -0.45835
   D22        2.60644   0.00663   0.04067   0.18233   0.22266   2.82910
   D23        1.66159  -0.00556  -0.05332  -0.11104  -0.16406   1.49753
   D24       -1.66219   0.00556   0.05333   0.11096   0.16399  -1.49820
         Item               Value     Threshold  Converged?
 Maximum Force            0.008184     0.000450     NO 
 RMS     Force            0.002558     0.000300     NO 
 Maximum Displacement     0.208129     0.001800     NO 
 RMS     Displacement     0.067881     0.001200     NO 
 Predicted change in Energy=-4.619548D-03
 GradGradGradGradGradGradGradGradGradGradGradGradGradGradGradGradGradGrad

                          Input orientation:                          
 ---------------------------------------------------------------------
 Center     Atomic      Atomic             Coordinates (Angstroms)
 Number     Number       Type             X           Y           Z
 ---------------------------------------------------------------------
      1          6           0        0.092261    0.015046    0.039768
      2          6           0        0.000811   -0.039399    1.590214
      3          1           0        0.983198    0.000094    2.025838
      4          1           0       -0.513297   -0.914228    1.951893
      5          1           0       -0.539938    0.823958    1.921870
      6          6           0        0.720319    1.291326   -0.586305
      7          1           0        0.172288    2.140321   -0.230415
      8          1           0        0.680890    1.296209   -1.662808
      9          1           0        1.741622    1.401937   -0.268316
     10          6           0        0.590859   -1.188351   -0.531289
     11          1           0       -0.929734   -0.102739   -0.370146
     12          1           0        0.978946   -1.227421   -1.536251
     13          1           0        0.484957   -2.142101   -0.040153
 ---------------------------------------------------------------------
                    Distance matrix (angstroms):
                    1          2          3          4          5
     1  C    0.000000
     2  C    1.554095   0.000000
     3  H    2.176802   1.075366   0.000000
     4  H    2.210536   1.077239   1.755263   0.000000
     5  H    2.143904   1.071350   1.734793   1.738650   0.000000
     6  C    1.554128   2.650614   2.925693   3.581721   2.845633
     7  H    2.143874   2.845220   3.213849   3.816119   2.621528
     8  H    2.210572   3.581691   3.921405   4.402065   3.816198
     9  H    2.176873   2.926091   2.793477   3.921557   3.215042
    10  C    1.422277   2.483752   2.846969   2.731391   3.368394
    11  H    1.107418   2.170930   3.067674   2.494754   2.502807
    12  H    2.194031   3.484670   3.767664   3.806839   4.298112
    13  H    2.194056   2.704413   3.017543   2.544097   3.701007
                    6          7          8          9         10
     6  C    0.000000
     7  H    1.071349   0.000000
     8  H    1.077236   1.738664   0.000000
     9  H    1.075366   1.734779   1.755261   0.000000
    10  C    2.483664   3.368351   2.731571   2.846577   0.000000
    11  H    2.170902   2.503057   2.494422   3.067664   1.875293
    12  H    2.704324   3.701026   2.544319   3.017094   1.078001
    13  H    3.484552   4.298035   3.807017   3.767157   1.077993
                   11         12         13
    11  H    0.000000
    12  H    2.503551   0.000000
    13  H    2.503846   1.821806   0.000000
 Stoichiometry    C4H9(1+)
 Framework group  C1[X(C4H9)]
 Deg. of freedom    33
 Full point group                 C1      NOp   1
 Largest Abelian subgroup         C1      NOp   1
 Largest concise Abelian subgroup C1      NOp   1
                         Standard orientation:                         
 ---------------------------------------------------------------------
 Center     Atomic      Atomic             Coordinates (Angstroms)
 Number     Number       Type             X           Y           Z
 ---------------------------------------------------------------------
      1          6           0       -0.000025    0.060492    0.273465
      2          6           0       -1.325433   -0.668594   -0.082822
      3          1           0       -1.396680   -0.820193   -1.145061
      4          1           0       -2.201090   -0.143517    0.260635
      5          1           0       -1.311259   -1.631959    0.385705
      6          6           0        1.325182   -0.669015   -0.082850
      7          1           0        1.310269   -1.632696    0.385001
      8          1           0        2.200975   -0.144644    0.261327
      9          1           0        1.396797   -0.819941   -1.145162
     10          6           0        0.000291    1.431647   -0.104429
     11          1           0        0.000062    0.263015    1.362207
     12          1           0        0.911324    2.001218   -0.192148
     13          1           0       -0.910481    2.001537   -0.192688
 ---------------------------------------------------------------------
 Rotational constants (GHZ):      8.9465779      7.5200409      4.5423715
 Standard basis: 6-31G(d,p) (6D, 7F)
 There are   105 symmetry adapted cartesian basis functions of A   symmetry.
 There are   105 symmetry adapted basis functions of A   symmetry.
   105 basis functions,   175 primitive gaussians,   105 cartesian basis functions
    16 alpha electrons       16 beta electrons
       nuclear repulsion energy       126.9458389736 Hartrees.
 NAtoms=   13 NActive=   13 NUniq=   13 SFac= 1.00D+00 NAtFMM=   60 NAOKFM=F Big=F
 Integral buffers will be    131072 words long.
 Raffenetti 1 integral format.
 Two-electron integral symmetry is turned on.
 One-electron integrals computed using PRISM.
 PrsmSu:  requested number of processors reduced to:  10 ShMem   1 Linda.
 NBasis=   105 RedAO= T EigKep=  4.67D-03  NBF=   105
 NBsUse=   105 1.00D-06 EigRej= -1.00D+00 NBFU=   105
 Initial guess from the checkpoint file:  "04_24_Homework42b_Interm2.chk"
 B after Tr=     0.000000    0.000000    0.000000
         Rot=    0.999947    0.010292   -0.000004   -0.000001 Ang=   1.18 deg.
 ExpMin= 1.61D-01 ExpMax= 3.05D+03 ExpMxC= 4.57D+02 IAcc=1 IRadAn=         1 AccDes= 0.00D+00
 Harris functional with IExCor=  205 and IRadAn=       1 diagonalized for initial guess.
 HarFok:  IExCor=  205 AccDes= 0.00D+00 IRadAn=         1 IDoV= 1 UseB2=F ITyADJ=14
 ICtDFT=  3500011 ScaDFX=  1.000000  1.000000  1.000000  1.000000
 FoFCou: FMM=F IPFlag=           0 FMFlag=      100000 FMFlg1=           0
         NFxFlg=           0 DoJE=T BraDBF=F KetDBF=T FulRan=T
         wScrn=  0.000000 ICntrl=     500 IOpCl=  0 I1Cent=   200000004 NGrid=           0
         NMat0=    1 NMatS0=      1 NMatT0=    0 NMatD0=    1 NMtDS0=    0 NMtDT0=    0
 Petite list used in FoFCou.
 Keep R1 ints in memory in canonical form, NReq=16424260.
 Requested convergence on RMS density matrix=1.00D-08 within 128 cycles.
 Requested convergence on MAX density matrix=1.00D-06.
 Requested convergence on             energy=1.00D-06.
 No special actions if energy rises.
 SCF Done:  E(RHF) =  -156.405813272     A.U. after   12 cycles
            NFock= 12  Conv=0.19D-08     -V/T= 2.0000
 PrsmSu:  requested number of processors reduced to:  10 ShMem   1 Linda.
 Calling FoFJK, ICntrl=      2127 FMM=F ISym2X=0 I1Cent= 0 IOpClX= 0 NMat=1 NMatS=1 NMatT=0.
 ***** Axes restored to original set *****
 -------------------------------------------------------------------
 Center     Atomic                   Forces (Hartrees/Bohr)
 Number     Number              X              Y              Z
 -------------------------------------------------------------------
      1        6           0.022188956    0.006029950    0.011012729
      2        6          -0.001884225    0.007888176   -0.011431848
      3        1           0.005635307   -0.000084287    0.001221333
      4        1          -0.001827235   -0.004638217   -0.001552005
      5        1          -0.003866824    0.005806073    0.003972619
      6        6          -0.008858352   -0.004989970    0.009655219
      7        1          -0.003106018    0.007212634    0.001677764
      8        1          -0.000989744   -0.003081346   -0.004098881
      9        1           0.005370989   -0.000577325    0.002016604
     10        6          -0.009517704   -0.010671898   -0.009668286
     11        1          -0.007078846   -0.003981317   -0.004775286
     12        1           0.002744004    0.001984512   -0.001366688
     13        1           0.001189694   -0.000896986    0.003336726
 -------------------------------------------------------------------
 Cartesian Forces:  Max     0.022188956 RMS     0.006614703

 GradGradGradGradGradGradGradGradGradGradGradGradGradGradGradGradGradGrad
 Berny optimization.
 Using GEDIIS/GDIIS optimizer.
 FormGI is forming the generalized inverse of G from B-inverse, IUseBI=4.
 Internal  Forces:  Max     0.009242765 RMS     0.003874789
 Search for a local minimum.
 Step number   3 out of a maximum of   67
 All quantities printed in internal units (Hartrees-Bohrs-Radians)
 Mixed Optimization -- RFO/linear search
 Update second derivatives using D2CorX and points    2    3
 DE= -3.13D-03 DEPred=-4.62D-03 R= 6.78D-01
 TightC=F SS=  1.41D+00  RLast= 5.05D-01 DXNew= 5.0454D-01 1.5154D+00
 Trust test= 6.78D-01 RLast= 5.05D-01 DXMaxT set to 5.05D-01
 ITU=  1  0  0
 Use linear search instead of GDIIS.
     Eigenvalues ---    0.00401   0.00401   0.00779   0.01699   0.03558
     Eigenvalues ---    0.05309   0.05348   0.05734   0.05896   0.06009
     Eigenvalues ---    0.06916   0.15532   0.15980   0.16000   0.16000
     Eigenvalues ---    0.16000   0.16000   0.16001   0.16285   0.19080
     Eigenvalues ---    0.20960   0.29648   0.29698   0.30215   0.33749
     Eigenvalues ---    0.34131   0.34137   0.34151   0.34170   0.34200
     Eigenvalues ---    0.35301   0.35386   0.36015
 RFO step:  Lambda=-3.51727945D-03 EMin= 4.00767256D-03
 Quartic linear search produced a step of -0.15846.
 Iteration  1 RMS(Cart)=  0.03482436 RMS(Int)=  0.00102383
 Iteration  2 RMS(Cart)=  0.00132041 RMS(Int)=  0.00073737
 Iteration  3 RMS(Cart)=  0.00000036 RMS(Int)=  0.00073737
 Variable       Old X    -DE/DX   Delta X   Delta X   Delta X     New X
                                 (Linear)    (Quad)   (Total)
    R1        2.93681  -0.00797  -0.00270  -0.02030  -0.02300   2.91381
    R2        2.93688  -0.00797  -0.00271  -0.02029  -0.02299   2.91389
    R3        2.68771   0.00924   0.01115   0.00087   0.01203   2.69974
    R4        2.09272   0.00872  -0.00273   0.02994   0.02721   2.11993
    R5        2.03215   0.00564   0.00253   0.00989   0.01242   2.04457
    R6        2.03569   0.00412   0.00249   0.00550   0.00798   2.04367
    R7        2.02456   0.00786   0.00278   0.01548   0.01825   2.04281
    R8        2.02456   0.00786   0.00278   0.01548   0.01826   2.04282
    R9        2.03568   0.00412   0.00249   0.00550   0.00799   2.04367
   R10        2.03215   0.00564   0.00253   0.00988   0.01242   2.04457
   R11        2.03713   0.00219   0.00085   0.00392   0.00477   2.04190
   R12        2.03711   0.00220   0.00085   0.00393   0.00479   2.04190
    A1        2.04255  -0.00863  -0.00823  -0.00612  -0.01666   2.02589
    A2        1.97312   0.00514  -0.00363   0.04717   0.04291   2.01603
    A3        1.88731   0.00198   0.00158  -0.01687  -0.01496   1.87235
    A4        1.97297   0.00515  -0.00362   0.04721   0.04296   2.01594
    A5        1.88723   0.00197   0.00159  -0.01691  -0.01499   1.87224
    A6        1.65581  -0.00497   0.01700  -0.07798  -0.05986   1.59595
    A7        1.92741  -0.00122   0.00204  -0.01377  -0.01194   1.91547
    A8        1.97305  -0.00483  -0.00133  -0.02913  -0.03060   1.94245
    A9        1.88632   0.00360   0.00322   0.01715   0.02051   1.90682
   A10        1.90689   0.00214  -0.00251   0.00954   0.00658   1.91347
   A11        1.88189  -0.00024  -0.00031   0.00752   0.00730   1.88918
   A12        1.88559   0.00078  -0.00114   0.01092   0.00996   1.89555
   A13        1.88624   0.00361   0.00323   0.01719   0.02055   1.90679
   A14        1.97306  -0.00483  -0.00133  -0.02914  -0.03062   1.94244
   A15        1.92746  -0.00123   0.00204  -0.01382  -0.01198   1.91548
   A16        1.88562   0.00078  -0.00114   0.01091   0.00995   1.89557
   A17        1.88186  -0.00023  -0.00031   0.00754   0.00731   1.88918
   A18        1.90689   0.00214  -0.00251   0.00956   0.00660   1.91348
   A19        2.13078  -0.00098  -0.00201  -0.00516  -0.00506   2.12573
   A20        2.13084  -0.00098  -0.00202  -0.00513  -0.00504   2.12580
   A21        2.01311   0.00224   0.00323   0.00066   0.00604   2.01915
    D1       -1.07814  -0.00295   0.00196  -0.05245  -0.05005  -1.12819
    D2        3.06266  -0.00136   0.00466  -0.03373  -0.02893   3.03373
    D3        0.97653  -0.00179   0.00475  -0.04098  -0.03590   0.94063
    D4        1.26058   0.00149  -0.01486   0.06744   0.05256   1.31313
    D5       -0.88180   0.00308  -0.01216   0.08616   0.07367  -0.80813
    D6       -2.96794   0.00265  -0.01207   0.07891   0.06671  -2.90123
    D7        3.07011  -0.00105   0.00434  -0.01196  -0.00763   3.06248
    D8        0.92773   0.00054   0.00704   0.00676   0.01349   0.94122
    D9       -1.15841   0.00011   0.00713  -0.00049   0.00652  -1.15188
   D10       -0.97568   0.00179  -0.00472   0.04073   0.03568  -0.94000
   D11       -3.06180   0.00136  -0.00463   0.03347   0.02871  -3.03309
   D12        1.07896   0.00295  -0.00192   0.05221   0.04985   1.12880
   D13        2.96873  -0.00265   0.01211  -0.07914  -0.06690   2.90183
   D14        0.88260  -0.00308   0.01220  -0.08639  -0.07387   0.80873
   D15       -1.25983  -0.00149   0.01491  -0.06765  -0.05273  -1.31256
   D16        1.15930  -0.00011  -0.00711   0.00026  -0.00673   1.15257
   D17       -0.92682  -0.00054  -0.00702  -0.00700  -0.01370  -0.94052
   D18       -3.06925   0.00105  -0.00431   0.01174   0.00744  -3.06181
   D19       -2.82965   0.00245   0.03528  -0.08613  -0.05236  -2.88202
   D20        0.45780  -0.00021  -0.01670  -0.00361  -0.02162   0.43618
   D21       -0.45835   0.00021   0.01670   0.00368   0.02169  -0.43665
   D22        2.82910  -0.00245  -0.03528   0.08621   0.05244   2.88154
   D23        1.49753   0.00133   0.02600  -0.04124  -0.01534   1.48219
   D24       -1.49820  -0.00133  -0.02599   0.04129   0.01540  -1.48280
         Item               Value     Threshold  Converged?
 Maximum Force            0.009243     0.000450     NO 
 RMS     Force            0.003875     0.000300     NO 
 Maximum Displacement     0.092250     0.001800     NO 
 RMS     Displacement     0.034884     0.001200     NO 
 Predicted change in Energy=-2.032537D-03
 GradGradGradGradGradGradGradGradGradGradGradGradGradGradGradGradGradGrad

                          Input orientation:                          
 ---------------------------------------------------------------------
 Center     Atomic      Atomic             Coordinates (Angstroms)
 Number     Number       Type             X           Y           Z
 ---------------------------------------------------------------------
      1          6           0        0.141077    0.006689    0.050789
      2          6           0        0.009009   -0.015140    1.586890
      3          1           0        0.990659    0.035639    2.038973
      4          1           0       -0.500880   -0.907065    1.924602
      5          1           0       -0.556648    0.848163    1.908329
      6          6           0        0.719171    1.298421   -0.561488
      7          1           0        0.145236    2.145757   -0.213345
      8          1           0        0.677458    1.273808   -1.641865
      9          1           0        1.744054    1.428491   -0.240108
     10          6           0        0.590383   -1.211338   -0.545488
     11          1           0       -0.887890   -0.131792   -0.374088
     12          1           0        0.943843   -1.249187   -1.565865
     13          1           0        0.447708   -2.167791   -0.063432
 ---------------------------------------------------------------------
                    Distance matrix (angstroms):
                    1          2          3          4          5
     1  C    0.000000
     2  C    1.541923   0.000000
     3  H    2.162291   1.081939   0.000000
     4  H    2.181337   1.081464   1.768180   0.000000
     5  H    2.155308   1.081010   1.752547   1.756189   0.000000
     6  C    1.541962   2.616353   2.903570   3.540245   2.816104
     7  H    2.155318   2.815827   3.200043   3.782592   2.584162
     8  H    2.181369   3.540208   3.896116   4.343314   3.782601
     9  H    2.162331   2.903855   2.775220   3.896218   3.200904
    10  C    1.428640   2.513150   2.897346   2.717496   3.402711
    11  H    1.121816   2.159508   3.062653   2.456584   2.505885
    12  H    2.198915   3.512357   3.827247   3.793103   4.326704
    13  H    2.198961   2.747712   3.093542   2.538016   3.740661
                    6          7          8          9         10
     6  C    0.000000
     7  H    1.081011   0.000000
     8  H    1.081462   1.756196   0.000000
     9  H    1.081938   1.752543   1.768185   0.000000
    10  C    2.513112   3.402729   2.717641   2.897052   0.000000
    11  H    2.159461   2.506076   2.456274   3.062607   1.838502
    12  H    2.747645   3.740686   2.538157   3.093207   1.080525
    13  H    3.512318   4.326738   3.793262   3.826875   1.080526
                   11         12         13
    11  H    0.000000
    12  H    2.454415   0.000000
    13  H    2.454714   1.829559   0.000000
 Stoichiometry    C4H9(1+)
 Framework group  C1[X(C4H9)]
 Deg. of freedom    33
 Full point group                 C1      NOp   1
 Largest Abelian subgroup         C1      NOp   1
 Largest concise Abelian subgroup C1      NOp   1
                         Standard orientation:                         
 ---------------------------------------------------------------------
 Center     Atomic      Atomic             Coordinates (Angstroms)
 Number     Number       Type             X           Y           Z
 ---------------------------------------------------------------------
      1          6           0       -0.000019    0.069905    0.231319
      2          6           0       -1.308260   -0.687361   -0.072950
      3          1           0       -1.387568   -0.867240   -1.136879
      4          1           0       -2.171699   -0.131984    0.267043
      5          1           0       -1.292413   -1.643266    0.431607
      6          6           0        1.308093   -0.687650   -0.072983
      7          1           0        1.291749   -1.643813    0.431071
      8          1           0        2.171614   -0.132745    0.267563
      9          1           0        1.387652   -0.867007   -1.136980
     10          6           0        0.000190    1.458044   -0.106446
     11          1           0        0.000083    0.307635    1.327657
     12          1           0        0.915057    2.030277   -0.162133
     13          1           0       -0.914502    2.030514   -0.162593
 ---------------------------------------------------------------------
 Rotational constants (GHZ):      8.6896215      7.7311462      4.5199372
 Standard basis: 6-31G(d,p) (6D, 7F)
 There are   105 symmetry adapted cartesian basis functions of A   symmetry.
 There are   105 symmetry adapted basis functions of A   symmetry.
   105 basis functions,   175 primitive gaussians,   105 cartesian basis functions
    16 alpha electrons       16 beta electrons
       nuclear repulsion energy       126.8733393998 Hartrees.
 NAtoms=   13 NActive=   13 NUniq=   13 SFac= 1.00D+00 NAtFMM=   60 NAOKFM=F Big=F
 Integral buffers will be    131072 words long.
 Raffenetti 1 integral format.
 Two-electron integral symmetry is turned on.
 One-electron integrals computed using PRISM.
 PrsmSu:  requested number of processors reduced to:  10 ShMem   1 Linda.
 NBasis=   105 RedAO= T EigKep=  4.72D-03  NBF=   105
 NBsUse=   105 1.00D-06 EigRej= -1.00D+00 NBFU=   105
 Initial guess from the checkpoint file:  "04_24_Homework42b_Interm2.chk"
 B after Tr=     0.000000    0.000000    0.000000
         Rot=    0.999990    0.004386   -0.000007   -0.000031 Ang=   0.50 deg.
 ExpMin= 1.61D-01 ExpMax= 3.05D+03 ExpMxC= 4.57D+02 IAcc=1 IRadAn=         1 AccDes= 0.00D+00
 Harris functional with IExCor=  205 and IRadAn=       1 diagonalized for initial guess.
 HarFok:  IExCor=  205 AccDes= 0.00D+00 IRadAn=         1 IDoV= 1 UseB2=F ITyADJ=14
 ICtDFT=  3500011 ScaDFX=  1.000000  1.000000  1.000000  1.000000
 FoFCou: FMM=F IPFlag=           0 FMFlag=      100000 FMFlg1=           0
         NFxFlg=           0 DoJE=T BraDBF=F KetDBF=T FulRan=T
         wScrn=  0.000000 ICntrl=     500 IOpCl=  0 I1Cent=   200000004 NGrid=           0
         NMat0=    1 NMatS0=      1 NMatT0=    0 NMatD0=    1 NMtDS0=    0 NMtDT0=    0
 Petite list used in FoFCou.
 Keep R1 ints in memory in canonical form, NReq=16424078.
 Requested convergence on RMS density matrix=1.00D-08 within 128 cycles.
 Requested convergence on MAX density matrix=1.00D-06.
 Requested convergence on             energy=1.00D-06.
 No special actions if energy rises.
 SCF Done:  E(RHF) =  -156.408346554     A.U. after   11 cycles
            NFock= 11  Conv=0.57D-08     -V/T= 2.0005
 PrsmSu:  requested number of processors reduced to:  10 ShMem   1 Linda.
 Calling FoFJK, ICntrl=      2127 FMM=F ISym2X=0 I1Cent= 0 IOpClX= 0 NMat=1 NMatS=1 NMatT=0.
 ***** Axes restored to original set *****
 -------------------------------------------------------------------
 Center     Atomic                   Forces (Hartrees/Bohr)
 Number     Number              X              Y              Z
 -------------------------------------------------------------------
      1        6           0.014267018    0.005294247    0.007940541
      2        6          -0.000846553    0.001974904   -0.005505860
      3        1           0.000521131   -0.000152759    0.000895594
      4        1           0.000055654   -0.000878849    0.001708095
      5        1          -0.000206049   -0.000254022    0.000331516
      6        6          -0.003721359   -0.003329363    0.003176867
      7        1           0.000040662    0.000202982   -0.000419804
      8        1           0.001049333    0.000956381   -0.001296009
      9        1           0.000884999    0.000520116   -0.000204845
     10        6          -0.012250919   -0.001162634   -0.004758130
     11        1          -0.003226081   -0.006105516   -0.004796182
     12        1           0.002006774    0.002000838    0.000591324
     13        1           0.001425389    0.000933676    0.002336893
 -------------------------------------------------------------------
 Cartesian Forces:  Max     0.014267018 RMS     0.004038636

 GradGradGradGradGradGradGradGradGradGradGradGradGradGradGradGradGradGrad
 Berny optimization.
 Using GEDIIS/GDIIS optimizer.
 FormGI is forming the generalized inverse of G from B-inverse, IUseBI=4.
 Internal  Forces:  Max     0.005529264 RMS     0.001703947
 Search for a local minimum.
 Step number   4 out of a maximum of   67
 All quantities printed in internal units (Hartrees-Bohrs-Radians)
 Mixed Optimization -- RFO/linear search
 Update second derivatives using D2CorX and points    3    4
 DE= -2.53D-03 DEPred=-2.03D-03 R= 1.25D+00
 TightC=F SS=  1.41D+00  RLast= 2.38D-01 DXNew= 8.4853D-01 7.1378D-01
 Trust test= 1.25D+00 RLast= 2.38D-01 DXMaxT set to 7.14D-01
 ITU=  1  1  0  0
 Use linear search instead of GDIIS.
     Eigenvalues ---    0.00392   0.00401   0.00779   0.01077   0.03828
     Eigenvalues ---    0.05411   0.05579   0.05691   0.05838   0.06005
     Eigenvalues ---    0.06814   0.15534   0.15854   0.16000   0.16000
     Eigenvalues ---    0.16000   0.16000   0.16016   0.17742   0.18897
     Eigenvalues ---    0.19818   0.28167   0.29649   0.31871   0.33568
     Eigenvalues ---    0.33892   0.34131   0.34143   0.34151   0.34200
     Eigenvalues ---    0.35328   0.35386   0.40792
 RFO step:  Lambda=-2.78890276D-03 EMin= 3.92287819D-03
 Quartic linear search produced a step of  0.48087.
 Iteration  1 RMS(Cart)=  0.06149161 RMS(Int)=  0.00288293
 Iteration  2 RMS(Cart)=  0.00388271 RMS(Int)=  0.00163414
 Iteration  3 RMS(Cart)=  0.00000496 RMS(Int)=  0.00163414
 Iteration  4 RMS(Cart)=  0.00000000 RMS(Int)=  0.00163414
 Variable       Old X    -DE/DX   Delta X   Delta X   Delta X     New X
                                 (Linear)    (Quad)   (Total)
    R1        2.91381  -0.00253  -0.01106  -0.01244  -0.02350   2.89031
    R2        2.91389  -0.00254  -0.01106  -0.01245  -0.02351   2.89038
    R3        2.69974  -0.00352   0.00578  -0.03553  -0.02975   2.66999
    R4        2.11993   0.00553   0.01308   0.03545   0.04854   2.16846
    R5        2.04457   0.00084   0.00597   0.00135   0.00732   2.05189
    R6        2.04367   0.00123   0.00384   0.00185   0.00569   2.04936
    R7        2.04281   0.00000   0.00878  -0.00106   0.00772   2.05053
    R8        2.04282   0.00000   0.00878  -0.00107   0.00771   2.05053
    R9        2.04367   0.00123   0.00384   0.00185   0.00569   2.04936
   R10        2.04457   0.00084   0.00597   0.00135   0.00732   2.05189
   R11        2.04190   0.00003   0.00229  -0.00044   0.00185   2.04375
   R12        2.04190   0.00003   0.00230  -0.00044   0.00186   2.04376
    A1        2.02589  -0.00311  -0.00801   0.00800  -0.00682   2.01908
    A2        2.01603   0.00206   0.02063   0.03529   0.05107   2.06709
    A3        1.87235   0.00157  -0.00719   0.00839   0.00328   1.87563
    A4        2.01594   0.00206   0.02066   0.03533   0.05113   2.06707
    A5        1.87224   0.00157  -0.00721   0.00839   0.00327   1.87551
    A6        1.59595  -0.00429  -0.02879  -0.13511  -0.16090   1.43505
    A7        1.91547   0.00041  -0.00574  -0.00497  -0.01085   1.90462
    A8        1.94245   0.00172  -0.01472   0.00957  -0.00526   1.93719
    A9        1.90682   0.00018   0.00986   0.00091   0.01085   1.91767
   A10        1.91347  -0.00123   0.00316  -0.00547  -0.00262   1.91085
   A11        1.88918  -0.00034   0.00351  -0.00033   0.00323   1.89241
   A12        1.89555  -0.00080   0.00479   0.00011   0.00499   1.90054
   A13        1.90679   0.00018   0.00988   0.00093   0.01088   1.91767
   A14        1.94244   0.00172  -0.01472   0.00956  -0.00527   1.93717
   A15        1.91548   0.00040  -0.00576  -0.00499  -0.01089   1.90459
   A16        1.89557  -0.00080   0.00478   0.00011   0.00498   1.90054
   A17        1.88918  -0.00033   0.00352  -0.00031   0.00325   1.89243
   A18        1.91348  -0.00123   0.00317  -0.00546  -0.00261   1.91088
   A19        2.12573  -0.00097  -0.00243  -0.00773  -0.01041   2.11531
   A20        2.12580  -0.00097  -0.00242  -0.00774  -0.01041   2.11539
   A21        2.01915   0.00228   0.00290   0.01264   0.01529   2.03444
    D1       -1.12819  -0.00021  -0.02407  -0.00420  -0.02783  -1.15602
    D2        3.03373  -0.00007  -0.01391  -0.00026  -0.01395   3.01979
    D3        0.94063  -0.00027  -0.01726  -0.00700  -0.02392   0.91671
    D4        1.31313   0.00197   0.02527   0.11419   0.13942   1.45255
    D5       -0.80813   0.00211   0.03543   0.11813   0.15330  -0.65483
    D6       -2.90123   0.00191   0.03208   0.11139   0.14333  -2.75790
    D7        3.06248  -0.00140  -0.00367  -0.02634  -0.03010   3.03238
    D8        0.94122  -0.00127   0.00649  -0.02240  -0.01621   0.92501
    D9       -1.15188  -0.00147   0.00314  -0.02914  -0.02618  -1.17807
   D10       -0.94000   0.00027   0.01716   0.00678   0.02359  -0.91641
   D11       -3.03309   0.00007   0.01380   0.00004   0.01362  -3.01947
   D12        1.12880   0.00020   0.02397   0.00399   0.02753   1.15633
   D13        2.90183  -0.00191  -0.03217  -0.11159  -0.14363   2.75820
   D14        0.80873  -0.00211  -0.03552  -0.11833  -0.15360   0.65513
   D15       -1.31256  -0.00197  -0.02536  -0.11438  -0.13969  -1.45225
   D16        1.15257   0.00146  -0.00323   0.02891   0.02586   1.17843
   D17       -0.94052   0.00126  -0.00659   0.02218   0.01589  -0.92463
   D18       -3.06181   0.00140   0.00358   0.02613   0.02980  -3.03201
   D19       -2.88202   0.00127  -0.02518  -0.06242  -0.09073  -2.97274
   D20        0.43618  -0.00133  -0.01040  -0.04385  -0.05740   0.37878
   D21       -0.43665   0.00133   0.01043   0.04418   0.05777  -0.37888
   D22        2.88154  -0.00126   0.02522   0.06275   0.09110   2.97264
   D23        1.48219   0.00130  -0.00738  -0.00911  -0.01648   1.46571
   D24       -1.48280  -0.00130   0.00741   0.00946   0.01685  -1.46595
         Item               Value     Threshold  Converged?
 Maximum Force            0.005529     0.000450     NO 
 RMS     Force            0.001704     0.000300     NO 
 Maximum Displacement     0.178092     0.001800     NO 
 RMS     Displacement     0.062423     0.001200     NO 
 Predicted change in Energy=-1.889132D-03
 GradGradGradGradGradGradGradGradGradGradGradGradGradGradGradGradGradGrad

                          Input orientation:                          
 ---------------------------------------------------------------------
 Center     Atomic      Atomic             Coordinates (Angstroms)
 Number     Number       Type             X           Y           Z
 ---------------------------------------------------------------------
      1          6           0        0.216389   -0.002316    0.070165
      2          6           0        0.026086    0.003582    1.587755
      3          1           0        0.995140    0.102661    2.067455
      4          1           0       -0.451686   -0.910456    1.922950
      5          1           0       -0.588893    0.848761    1.879132
      6          6           0        0.728927    1.303808   -0.538754
      7          1           0        0.104269    2.130783   -0.217286
      8          1           0        0.719729    1.257259   -1.622190
      9          1           0        1.742144    1.484192   -0.192573
     10          6           0        0.560883   -1.219090   -0.559965
     11          1           0       -0.804304   -0.226034   -0.404064
     12          1           0        0.856869   -1.247318   -1.599796
     13          1           0        0.357629   -2.171179   -0.088926
 ---------------------------------------------------------------------
                    Distance matrix (angstroms):
                    1          2          3          4          5
     1  C    0.000000
     2  C    1.529486   0.000000
     3  H    2.146308   1.085815   0.000000
     4  H    2.168837   1.084476   1.772172   0.000000
     5  H    2.155266   1.085093   1.761048   1.765104   0.000000
     6  C    1.529522   2.589713   2.882004   3.515225   2.791038
     7  H    2.155298   2.790927   3.182290   3.760164   2.553238
     8  H    2.168859   3.515195   3.875877   4.317317   3.760135
     9  H    2.146314   2.882122   2.752157   3.875909   3.182682
    10  C    1.412897   2.528564   2.973035   2.699151   3.398115
    11  H    1.147501   2.170164   3.074808   2.451074   2.532700
    12  H    2.179224   3.523554   3.910281   3.773001   4.311232
    13  H    2.179272   2.766002   3.197929   2.508398   3.726821
                    6          7          8          9         10
     6  C    0.000000
     7  H    1.085093   0.000000
     8  H    1.084474   1.765103   0.000000
     9  H    1.085812   1.761058   1.772183   0.000000
    10  C    2.528577   3.398172   2.699233   2.972892   0.000000
    11  H    2.170106   2.532781   2.450851   3.074735   1.695347
    12  H    2.765940   3.726836   2.508429   3.197677   1.081505
    13  H    3.523598   4.311328   3.773090   3.910161   1.081510
                   11         12         13
    11  H    0.000000
    12  H    2.287421   0.000000
    13  H    2.287573   1.839970   0.000000
 Stoichiometry    C4H9(1+)
 Framework group  C1[X(C4H9)]
 Deg. of freedom    33
 Full point group                 C1      NOp   1
 Largest Abelian subgroup         C1      NOp   1
 Largest concise Abelian subgroup C1      NOp   1
                         Standard orientation:                         
 ---------------------------------------------------------------------
 Center     Atomic      Atomic             Coordinates (Angstroms)
 Number     Number       Type             X           Y           Z
 ---------------------------------------------------------------------
      1          6           0       -0.000017    0.082204    0.162328
      2          6           0       -1.294838   -0.702571   -0.054223
      3          1           0       -1.375994   -0.972729   -1.102757
      4          1           0       -2.158669   -0.114497    0.235694
[...]
   D18       -2.16112   0.00001   0.00048  -0.00008   0.00040  -2.16072
   D19       -2.67167  -0.00001   0.00013  -0.00029  -0.00016  -2.67183
   D20       -0.43036   0.00000   0.00022  -0.00010   0.00012  -0.43024
   D21        0.42984  -0.00001  -0.00002  -0.00011  -0.00012   0.42972
   D22        2.67116   0.00001   0.00007   0.00009   0.00015   2.67131
   D23        2.02104  -0.00001   0.00010  -0.00027  -0.00017   2.02087
   D24       -2.02083   0.00000   0.00018  -0.00008   0.00011  -2.02073
         Item               Value     Threshold  Converged?
 Maximum Force            0.000121     0.000450     YES
 RMS     Force            0.000020     0.000300     YES
 Maximum Displacement     0.000813     0.001800     YES
 RMS     Displacement     0.000265     0.001200     YES
 Predicted change in Energy=-4.437457D-08
 Optimization completed.
    -- Stationary point found.
                           ----------------------------
                           !   Optimized Parameters   !
                           ! (Angstroms and Degrees)  !
 --------------------------                            --------------------------
 ! Name  Definition              Value          Derivative Info.                !
 --------------------------------------------------------------------------------
 ! R1    R(1,2)                  1.4716         -DE/DX =    0.0                 !
 ! R2    R(1,6)                  1.4716         -DE/DX =    0.0                 !
 ! R3    R(1,10)                 1.4699         -DE/DX =    0.0001              !
 ! R4    R(1,11)                 2.0326         -DE/DX =    0.0                 !
 ! R5    R(2,3)                  1.096          -DE/DX =    0.0                 !
 ! R6    R(2,4)                  1.0825         -DE/DX =    0.0                 !
 ! R7    R(2,5)                  1.0805         -DE/DX =    0.0                 !
 ! R8    R(6,7)                  1.0805         -DE/DX =    0.0                 !
 ! R9    R(6,8)                  1.0825         -DE/DX =    0.0                 !
 ! R10   R(6,9)                  1.096          -DE/DX =    0.0                 !
 ! R11   R(10,12)                1.0818         -DE/DX =    0.0                 !
 ! R12   R(10,13)                1.0818         -DE/DX =    0.0                 !
 ! A1    A(2,1,6)              120.6343         -DE/DX =    0.0                 !
 ! A2    A(2,1,10)             119.6623         -DE/DX =    0.0                 !
 ! A3    A(2,1,11)             115.4976         -DE/DX =    0.0                 !
 ! A4    A(6,1,10)             119.663          -DE/DX =    0.0                 !
 ! A5    A(6,1,11)             115.5191         -DE/DX =    0.0                 !
 ! A6    A(10,1,11)             31.5987         -DE/DX =    0.0                 !
 ! A7    A(1,2,3)              104.2984         -DE/DX =    0.0                 !
 ! A8    A(1,2,4)              112.2686         -DE/DX =    0.0                 !
 ! A9    A(1,2,5)              113.1829         -DE/DX =    0.0                 !
 ! A10   A(3,2,4)              106.7774         -DE/DX =    0.0                 !
 ! A11   A(3,2,5)              107.768          -DE/DX =    0.0                 !
 ! A12   A(4,2,5)              111.9357         -DE/DX =    0.0                 !
 ! A13   A(1,6,7)              113.1861         -DE/DX =    0.0                 !
 ! A14   A(1,6,8)              112.2656         -DE/DX =    0.0                 !
 ! A15   A(1,6,9)              104.2988         -DE/DX =    0.0                 !
 ! A16   A(7,6,8)              111.9353         -DE/DX =    0.0                 !
 ! A17   A(7,6,9)              107.7713         -DE/DX =    0.0                 !
 ! A18   A(8,6,9)              106.7739         -DE/DX =    0.0                 !
 ! A19   A(1,10,12)            112.8589         -DE/DX =    0.0                 !
 ! A20   A(1,10,13)            112.8566         -DE/DX =    0.0                 !
 ! A21   A(12,10,13)           112.1321         -DE/DX =    0.0                 !
 ! D1    D(6,1,2,3)            -89.3049         -DE/DX =    0.0                 !
 ! D2    D(6,1,2,4)            155.465          -DE/DX =    0.0                 !
 ! D3    D(6,1,2,5)             27.5497         -DE/DX =    0.0                 !
 ! D4    D(10,1,2,3)            88.376          -DE/DX =    0.0                 !
 ! D5    D(10,1,2,4)           -26.8541         -DE/DX =    0.0                 !
 ! D6    D(10,1,2,5)          -154.7694         -DE/DX =    0.0                 !
 ! D7    D(11,1,2,3)           123.8543         -DE/DX =    0.0                 !
 ! D8    D(11,1,2,4)             8.6241         -DE/DX =    0.0                 !
 ! D9    D(11,1,2,5)          -119.2911         -DE/DX =    0.0                 !
 ! D10   D(2,1,6,7)            -27.5174         -DE/DX =    0.0                 !
 ! D11   D(2,1,6,8)           -155.4322         -DE/DX =    0.0                 !
 ! D12   D(2,1,6,9)             89.343          -DE/DX =    0.0                 !
 ! D13   D(10,1,6,7)           154.8017         -DE/DX =    0.0                 !
 ! D14   D(10,1,6,8)            26.8869         -DE/DX =    0.0                 !
 ! D15   D(10,1,6,9)           -88.3379         -DE/DX =    0.0                 !
 ! D16   D(11,1,6,7)           119.3168         -DE/DX =    0.0                 !
 ! D17   D(11,1,6,8)            -8.5981         -DE/DX =    0.0                 !
 ! D18   D(11,1,6,9)          -123.8229         -DE/DX =    0.0                 !
 ! D19   D(2,1,10,12)         -153.0756         -DE/DX =    0.0                 !
 ! D20   D(2,1,10,13)          -24.6576         -DE/DX =    0.0                 !
 ! D21   D(6,1,10,12)           24.628          -DE/DX =    0.0                 !
 ! D22   D(6,1,10,13)          153.046          -DE/DX =    0.0                 !
 ! D23   D(11,1,10,12)         115.797          -DE/DX =    0.0                 !
 ! D24   D(11,1,10,13)        -115.7851         -DE/DX =    0.0                 !
 --------------------------------------------------------------------------------
 GradGradGradGradGradGradGradGradGradGradGradGradGradGradGradGradGradGrad

                          Input orientation:                          
 ---------------------------------------------------------------------
 Center     Atomic      Atomic             Coordinates (Angstroms)
 Number     Number       Type             X           Y           Z
 ---------------------------------------------------------------------
      1          6           0        0.312560    0.116170    0.174365
      2          6           0        0.005026    0.089172    1.613189
      3          1           0        0.971299   -0.104253    2.092938
      4          1           0       -0.645772   -0.734216    1.878171
      5          1           0       -0.365521    1.032892    1.986727
      6          6           0        0.699022    1.372996   -0.486368
      7          1           0        0.292838    2.249959   -0.003269
      8          1           0        0.486092    1.360784   -1.547615
      9          1           0        1.789556    1.408977   -0.382958
     10          6           0        0.282671   -1.133192   -0.599454
     11          1           0       -0.747577   -1.185592   -0.971565
     12          1           0        0.934871   -1.108857   -1.462180
     13          1           0        0.448116   -2.010186    0.011922
 ---------------------------------------------------------------------
                    Distance matrix (angstroms):
                    1          2          3          4          5
     1  C    0.000000
     2  C    1.471570   0.000000
     3  H    2.040452   1.096018   0.000000
     4  H    2.131786   1.082461   1.748684   0.000000
     5  H    2.141221   1.080482   1.758256   1.792483   0.000000
     6  C    1.471575   2.556946   2.984831   3.440910   2.713876
     7  H    2.141261   2.713811   3.224392   3.650494   2.423793
     8  H    2.131758   3.440799   3.954160   4.172068   3.650251
     9  H    2.040460   2.985135   3.014874   3.954340   3.225090
    10  C    1.469895   2.543039   2.963426   2.675782   3.435171
    11  H    2.032641   2.978655   3.676276   2.887058   3.717409
    12  H    2.136876   3.428961   3.694511   3.714395   4.262987
    13  H    2.136855   2.677254   2.870005   2.511488   3.717819
                    6          7          8          9         10
     6  C    0.000000
     7  H    1.080478   0.000000
     8  H    1.082466   1.792480   0.000000
     9  H    1.096017   1.758289   1.748648   0.000000
    10  C    2.543052   3.435294   2.675874   2.963139   0.000000
    11  H    2.978999   3.717939   2.887525   3.676315   1.096643
    12  H    2.677205   3.717831   2.511539   2.869615   1.081782
    13  H    3.428872   4.263000   3.714436   3.694058   1.081791
                   11         12         13
    11  H    0.000000
    12  H    1.754202   0.000000
    13  H    1.754105   1.795077   0.000000
 Stoichiometry    C4H9(1+)
 Framework group  C1[X(C4H9)]
 Deg. of freedom    33
 Full point group                 C1      NOp   1
 Largest Abelian subgroup         C1      NOp   1
 Largest concise Abelian subgroup C1      NOp   1
                         Standard orientation:                         
 ---------------------------------------------------------------------
 Center     Atomic      Atomic             Coordinates (Angstroms)
 Number     Number       Type             X           Y           Z
 ---------------------------------------------------------------------
      1          6           0       -0.000006    0.004710    0.020542
      2          6           0        1.278061    0.734088    0.012009
      3          1           0        1.506773    0.867009   -1.051607
      4          1           0        2.086021    0.150873    0.434837
      5          1           0        1.210977    1.715054    0.459945
      6          6           0       -1.278884    0.732673    0.012013
      7          1           0       -1.212816    1.713938    0.459436
      8          1           0       -2.086046    0.148731    0.435374
      9          1           0       -1.508101    0.864731   -1.051601
     10          6           0        0.000818   -1.464780   -0.013942
     11          1           0        0.001366   -1.751077    1.044670
     12          1           0       -0.896593   -1.875230   -0.457156
     13          1           0        0.898484   -1.874177   -0.457632
 ---------------------------------------------------------------------
 Rotational constants (GHZ):      8.3012714      8.1868120      4.4536314

 **********************************************************************

            Population analysis using the SCF density.

 **********************************************************************

 Orbital symmetries:
       Occupied  (A) (A) (A) (A) (A) (A) (A) (A) (A) (A) (A) (A)
                 (A) (A) (A) (A)
       Virtual   (A) (A) (A) (A) (A) (A) (A) (A) (A) (A) (A) (A)
                 (A) (A) (A) (A) (A) (A) (A) (A) (A) (A) (A) (A)
                 (A) (A) (A) (A) (A) (A) (A) (A) (A) (A) (A) (A)
                 (A) (A) (A) (A) (A) (A) (A) (A) (A) (A) (A) (A)
                 (A) (A) (A) (A) (A) (A) (A) (A) (A) (A) (A) (A)
                 (A) (A) (A) (A) (A) (A) (A) (A) (A) (A) (A) (A)
                 (A) (A) (A) (A) (A) (A) (A) (A) (A) (A) (A) (A)
                 (A) (A) (A) (A) (A)
 The electronic state is 1-A.
 Alpha  occ. eigenvalues --  -11.58024 -11.44300 -11.44253 -11.44251  -1.35409
 Alpha  occ. eigenvalues --   -1.18819  -1.18686  -0.96028  -0.85001  -0.84911
 Alpha  occ. eigenvalues --   -0.83145  -0.76079  -0.75871  -0.74674  -0.73424
 Alpha  occ. eigenvalues --   -0.73277
 Alpha virt. eigenvalues --   -0.15510   0.02923   0.08461   0.09451   0.10818
 Alpha virt. eigenvalues --    0.10824   0.11487   0.14307   0.15554   0.15901
 Alpha virt. eigenvalues --    0.17073   0.25294   0.27441   0.48256   0.49321
 Alpha virt. eigenvalues --    0.52145   0.56061   0.57417   0.58715   0.65517
 Alpha virt. eigenvalues --    0.71280   0.71529   0.75109   0.77917   0.79611
 Alpha virt. eigenvalues --    0.86235   0.89820   0.90402   0.91829   0.93947
 Alpha virt. eigenvalues --    0.96241   0.96647   0.97725   1.02083   1.02307
 Alpha virt. eigenvalues --    1.14639   1.29811   1.36134   1.40957   1.42737
 Alpha virt. eigenvalues --    1.57115   1.73885   1.80896   1.83065   1.90292
 Alpha virt. eigenvalues --    1.92243   1.96252   1.99960   2.04854   2.11055
 Alpha virt. eigenvalues --    2.13297   2.13320   2.16864   2.19229   2.20039
 Alpha virt. eigenvalues --    2.23367   2.23583   2.25905   2.36541   2.38457
 Alpha virt. eigenvalues --    2.46722   2.47469   2.48738   2.58575   2.60487
 Alpha virt. eigenvalues --    2.74394   2.75995   2.80248   2.84996   2.86096
 Alpha virt. eigenvalues --    2.96431   2.96863   3.03015   3.03904   3.11905
 Alpha virt. eigenvalues --    3.13217   3.33056   3.39382   3.39790   3.58265
 Alpha virt. eigenvalues --    3.58684   3.59493   3.60707   3.65330   3.65587
 Alpha virt. eigenvalues --    4.32331   4.67556   4.68728   4.79758
          Condensed to atoms (all electrons):
               1          2          3          4          5          6
     1  C    5.087270   0.314594  -0.023658  -0.037874  -0.037483   0.314596
     2  C    0.314594   5.019874   0.376401   0.405880   0.405623  -0.048607
     3  H   -0.023658   0.376401   0.444610  -0.014891  -0.015200  -0.001163
     4  H   -0.037874   0.405880  -0.014891   0.445416  -0.017721   0.002560
     5  H   -0.037483   0.405623  -0.015200  -0.017721   0.448426  -0.003002
     6  C    0.314596  -0.048607  -0.001163   0.002560  -0.003002   5.019872
     7  H   -0.037489  -0.003001   0.000286  -0.000027   0.001045   0.405635
     8  H   -0.037865   0.002559  -0.000023  -0.000088  -0.000027   0.405866
     9  H   -0.023660  -0.001161  -0.000640  -0.000023   0.000286   0.376403
    10  C    0.313553  -0.045507  -0.002034  -0.002944   0.002748  -0.045505
    11  H   -0.020354  -0.001869   0.000297  -0.000132  -0.000232  -0.001865
    12  H   -0.039760   0.002514  -0.000246   0.000121  -0.000062  -0.002114
    13  H   -0.039754  -0.002114  -0.000097   0.000237   0.000110   0.002513
               7          8          9         10         11         12
     1  C   -0.037489  -0.037865  -0.023660   0.313553  -0.020354  -0.039760
     2  C   -0.003001   0.002559  -0.001161  -0.045507  -0.001869   0.002514
     3  H    0.000286  -0.000023  -0.000640  -0.002034   0.000297  -0.000246
     4  H   -0.000027  -0.000088  -0.000023  -0.002944  -0.000132   0.000121
     5  H    0.001045  -0.000027   0.000286   0.002748  -0.000232  -0.000062
     6  C    0.405635   0.405866   0.376403  -0.045505  -0.001865  -0.002114
     7  H    0.448434  -0.017721  -0.015202   0.002749  -0.000232   0.000109
     8  H   -0.017721   0.445401  -0.014889  -0.002945  -0.000132   0.000237
     9  H   -0.015202  -0.014889   0.444614  -0.002037   0.000297  -0.000096
    10  C    0.002749  -0.002945  -0.002037   5.026293   0.372673   0.407179
    11  H   -0.000232  -0.000132   0.000297   0.372673   0.444712  -0.015277
    12  H    0.000109   0.000237  -0.000096   0.407179  -0.015277   0.448230
    13  H   -0.000062   0.000121  -0.000246   0.407168  -0.015282  -0.017732
              13
     1  C   -0.039754
     2  C   -0.002114
     3  H   -0.000097
     4  H    0.000237
     5  H    0.000110
     6  C    0.002513
     7  H   -0.000062
     8  H    0.000121
     9  H   -0.000246
    10  C    0.407168
    11  H   -0.015282
    12  H   -0.017732
    13  H    0.448224
 Mulliken charges:
               1
     1  C    0.267884
     2  C   -0.425187
     3  H    0.236358
     4  H    0.219486
     5  H    0.215491
     6  C   -0.425188
     7  H    0.215476
     8  H    0.219507
     9  H    0.236356
    10  C   -0.431390
    11  H    0.237396
    12  H    0.216896
    13  H    0.216914
 Sum of Mulliken charges =   1.00000
 Mulliken charges with hydrogens summed into heavy atoms:
               1
     1  C    0.267884
     2  C    0.246149
     6  C    0.246151
    10  C    0.239816
 Electronic spatial extent (au):  <R**2>=            325.7596
 Charge=              1.0000 electrons
 Dipole moment (field-independent basis, Debye):
    X=              0.0000    Y=             -0.0320    Z=             -0.1505  Tot=              0.1539
 Quadrupole moment (field-independent basis, Debye-Ang):
   XX=            -18.3411   YY=            -18.5412   ZZ=            -22.8556
   XY=             -0.0001   XZ=              0.0004   YZ=             -0.5530
 Traceless Quadrupole moment (field-independent basis, Debye-Ang):
   XX=              1.5715   YY=              1.3714   ZZ=             -2.9429
   XY=             -0.0001   XZ=              0.0004   YZ=             -0.5530
 Octapole moment (field-independent basis, Debye-Ang**2):
  XXX=             -0.0049  YYY=             -2.1767  ZZZ=             -1.2438  XYY=              0.0050
  XXY=              2.0966  XXZ=             -0.8333  XZZ=              0.0001  YZZ=             -0.0012
  YYZ=              1.4212  XYZ=             -0.0015
 Hexadecapole moment (field-independent basis, Debye-Ang**3):
 XXXX=           -168.3955 YYYY=           -167.0648 ZZZZ=            -38.1673 XXXY=             -0.0001
 XXXZ=             -0.0002 YYYX=             -0.0004 YYYZ=              3.7938 ZZZX=              0.0033
 ZZZY=             -4.6760 XXYY=            -55.8334 XXZZ=            -34.7753 YYZZ=            -34.1690
 XXYZ=             -0.3945 YYXZ=             -0.0023 ZZXY=             -0.0001
 N-N= 1.271460552169D+02 E-N=-6.098647360191D+02  KE= 1.563787335395D+02
 B after Tr=     0.039050   -0.159737   -0.084791
         Rot=    0.999429    0.009179    0.016980   -0.027730 Ang=   3.87 deg.
 Final structure in terms of initial Z-matrix:
 C
 C,1,B1
 H,2,B2,1,A2
 H,2,B3,1,A3,3,D3,0
 H,2,B4,1,A4,3,D4,0
 C,1,B5,2,A5,3,D5,0
 H,6,B6,1,A6,2,D6,0
 H,6,B7,1,A7,2,D7,0
 H,6,B8,1,A8,2,D8,0
 C,1,B9,2,A9,3,D9,0
 H,1,B10,2,A10,3,D10,0
 H,10,B11,1,A11,2,D11,0
 H,10,B12,1,A12,2,D12,0
      Variables:
 B1=1.4715704
 B2=1.09601833
 A2=104.2984473
 B3=1.08246107
 A3=112.26861354
 D3=-115.23014353
 B4=1.08048222
 A4=113.18288782
 D4=116.85460577
 B5=1.47157513
 A5=120.6343431
 D5=-89.30487926
 B6=1.08047824
 A6=113.18611426
 D6=-27.51739173
 B7=1.08246642
 A7=112.2655984
 D7=-155.43220837
 B8=1.09601732
 A8=104.29880198
 D8=89.34298474
 B9=1.46989541
 A9=119.66228048
 D9=88.37601549
 B10=2.03264108
 A10=115.49755796
 D10=123.85426793
 B11=1.08178241
 A11=112.85887031
 D11=-153.07560687
 B12=1.08179056
 A12=112.85661176
 D12=-24.65763325
 1\1\GINC-COMPUTE-1-27\FOpt\RHF\6-31G(d,p)\C4H9(1+)\SGN228\22-Apr-2015\
 0\\#n RHF/6-31G(d,p) Opt\\Title\\1,1\C,0.2998096978,0.1375625519,0.183
 2435769\C,-0.0077243003,0.110565007,1.6220671941\H,0.958548787,-0.0828
 60243,2.1018162697\H,-0.6585217252,-0.7128236669,1.8870497688\H,-0.378
 2707034,1.0542843891,1.9956055773\C,0.6862717152,1.3943888602,-0.47748
 94245\H,0.2800878267,2.271351334,0.0056096355\H,0.4733414806,1.3821762
 743,-1.5387363902\H,1.776806288,1.4303695622,-0.3740790993\C,0.2699210
 853,-1.1117988873,-0.5905749856\H,-0.7603275668,-1.164198906,-0.962686
 5531\H,0.9221210568,-1.0874640577,-1.45330101\H,0.4353658778,-1.988793
 0274,0.0208006123\\Version=ES64L-G09RevD.01\State=1-A\HF=-156.4584637\
 RMSD=2.832e-09\RMSF=3.516e-05\Dipole=0.0563986,-0.0212762,0.0056422\Qu
 adrupole=-1.9008928,0.8290259,1.0718669,0.9051434,-0.4611347,0.0915627
 \PG=C01 [X(C4H9)]\\@


 IT IS A QUALITY OF REVOLUTIONS NOT TO GO BY OLD LINES OR OLD LAWS,
 BUT TO BREAK UP BOTH, AND MAKE NEW ONES.
                                              -- A. LINCOLN (1848)
 Job cpu time:       0 days  0 hours  0 minutes 42.5 seconds.
 File lengths (MBytes):  RWF=     10 Int=      0 D2E=      0 Chk=      2 Scr=      1
 Normal termination of Gaussian 09 at Wed Apr 22 22:01:56 2015.
